 Entering Gaussian System, Link 0=g09
 Input=Azo0excited.com
 Output=Azo0excited.log
 Initial command:
 /home/sknippen/PROGRAMS/GAUSSIAN/g09.d01/tar//g09/l1.exe "/scratch/tbergs/Gau-19487.inp" -scrdir="/scratch/tbergs/"
 Entering Link 1 = /home/sknippen/PROGRAMS/GAUSSIAN/g09.d01/tar//g09/l1.exe PID=     19489.
  
 Copyright (c) 1988,1990,1992,1993,1995,1998,2003,2009,2013,
            Gaussian, Inc.  All Rights Reserved.
  
 This is part of the Gaussian(R) 09 program.  It is based on
 the Gaussian(R) 03 system (copyright 2003, Gaussian, Inc.),
 the Gaussian(R) 98 system (copyright 1998, Gaussian, Inc.),
 the Gaussian(R) 94 system (copyright 1995, Gaussian, Inc.),
 the Gaussian 92(TM) system (copyright 1992, Gaussian, Inc.),
 the Gaussian 90(TM) system (copyright 1990, Gaussian, Inc.),
 the Gaussian 88(TM) system (copyright 1988, Gaussian, Inc.),
 the Gaussian 86(TM) system (copyright 1986, Carnegie Mellon
 University), and the Gaussian 82(TM) system (copyright 1983,
 Carnegie Mellon University). Gaussian is a federally registered
 trademark of Gaussian, Inc.
  
 This software contains proprietary and confidential information,
 including trade secrets, belonging to Gaussian, Inc.
  
 This software is provided under written license and may be
 used, copied, transmitted, or stored only in accord with that
 written license.
  
 The following legend is applicable only to US Government
 contracts under FAR:
  
                    RESTRICTED RIGHTS LEGEND
  
 Use, reproduction and disclosure by the US Government is
 subject to restrictions as set forth in subparagraphs (a)
 and (c) of the Commercial Computer Software - Restricted
 Rights clause in FAR 52.227-19.
  
 Gaussian, Inc.
 340 Quinnipiac St., Bldg. 40, Wallingford CT 06492
  
  
 ---------------------------------------------------------------
 Warning -- This program may not be used in any manner that
 competes with the business of Gaussian, Inc. or will provide
 assistance to any competitor of Gaussian, Inc.  The licensee
 of this program is prohibited from giving any competitor of
 Gaussian, Inc. access to this program.  By using this program,
 the user acknowledges that Gaussian, Inc. is engaged in the
 business of creating and licensing software in the field of
 computational chemistry and represents and warrants to the
 licensee that it is not a competitor of Gaussian, Inc. and that
 it will not use this program in any manner prohibited above.
 ---------------------------------------------------------------
  

 Cite this work as:
 Gaussian 09, Revision D.01,
 M. J. Frisch, G. W. Trucks, H. B. Schlegel, G. E. Scuseria, 
 M. A. Robb, J. R. Cheeseman, G. Scalmani, V. Barone, B. Mennucci, 
 G. A. Petersson, H. Nakatsuji, M. Caricato, X. Li, H. P. Hratchian, 
 A. F. Izmaylov, J. Bloino, G. Zheng, J. L. Sonnenberg, M. Hada, 
 M. Ehara, K. Toyota, R. Fukuda, J. Hasegawa, M. Ishida, T. Nakajima, 
 Y. Honda, O. Kitao, H. Nakai, T. Vreven, J. A. Montgomery, Jr., 
 J. E. Peralta, F. Ogliaro, M. Bearpark, J. J. Heyd, E. Brothers, 
 K. N. Kudin, V. N. Staroverov, T. Keith, R. Kobayashi, J. Normand, 
 K. Raghavachari, A. Rendell, J. C. Burant, S. S. Iyengar, J. Tomasi, 
 M. Cossi, N. Rega, J. M. Millam, M. Klene, J. E. Knox, J. B. Cross, 
 V. Bakken, C. Adamo, J. Jaramillo, R. Gomperts, R. E. Stratmann, 
 O. Yazyev, A. J. Austin, R. Cammi, C. Pomelli, J. W. Ochterski, 
 R. L. Martin, K. Morokuma, V. G. Zakrzewski, G. A. Voth, 
 P. Salvador, J. J. Dannenberg, S. Dapprich, A. D. Daniels, 
 O. Farkas, J. B. Foresman, J. V. Ortiz, J. Cioslowski, 
 and D. J. Fox, Gaussian, Inc., Wallingford CT, 2013.
 
 ******************************************
 Gaussian 09:  ES64L-G09RevD.01 24-Apr-2013
                 9-May-2017 
 ******************************************
 %mem=50Gb
 %nprocs=20
 Will use up to   20 processors via shared memory.
 %chk=Azo0.chk
 ----------------------------------------------------------------------
 #CAM-B3LYP/cc-pVDZ opt(noeigentest,modredundant) nosymm SCRF=(Solvent=
 water) TD(NStates=3,root=1) guess=read geom=(allcheck,modredundant)
 ----------------------------------------------------------------------
 1/11=1,14=-1,18=120,19=15,26=3,29=7,38=1/1,3;
 2/9=110,12=2,15=1,40=1/2;
 3/5=16,11=9,14=-4,16=1,25=1,30=1,70=2201,71=1,72=1,74=-40,116=-2/1,2,8,3;
 4/5=1/1;
 5/5=2,38=6,53=1/2;
 8/6=1,10=1,107=1,108=3/1;
 9/8=1,15=2,41=3,42=1,70=2/14;
 10/5=4,31=1/2;
 6/7=2,8=2,9=2,10=2/1;
 7/12=6,13=5,14=1,30=1/1,2,3,16;
 1/11=1,14=-1,18=20,19=15,26=3/3(2);
 2/9=110,15=1/2;
 99//99;
 2/9=110,15=1/2;
 3/5=16,11=9,14=-2,16=1,25=1,30=1,70=2205,71=1,72=1,74=-40/1,2,8,3;
 4/5=5,16=3,69=1/1;
 5/5=2,38=5,53=1/2;
 8/6=1,10=1,107=1,108=3/1;
 9/8=1,15=2,41=3,42=1,49=4,70=2/14;
 10/5=4,31=1/2;
 7/12=6,13=5,14=1,30=1/1,2,3,16;
 1/11=1,14=-1,18=20,19=15,26=3/3(-8);
 2/9=110,15=1/2;
 6/7=2,8=2,9=2,10=2/1;
 99//99;
 Structure from the checkpoint file:  "Azo0.chk"
 --------
 Azo0 deg
 --------
 Charge =  0 Multiplicity = 1
 Redundant internal coordinates found in file.
 C,0,-0.1191169613,-1.0445927672,0.5581500272
 C,0,-0.0240734749,-0.7690011459,1.9930464326
 C,0,1.229568222,-0.4273235647,2.5609394189
 C,0,2.4140781837,-0.3490095931,1.7272043284
 C,0,2.3199867916,-0.606998903,0.3369895491
 C,0,1.0411497625,-0.9559302667,-0.2519019546
 C,0,3.6654670617,-0.0141355509,2.3027601214
 C,0,4.8235485645,0.0580211604,1.4885054022
 C,0,4.7293536698,-0.2002346229,0.098381302
 C,0,3.476963585,-0.529198687,-0.4776775075
 C,0,5.9141403052,-0.127764096,-0.7352603516
 C,0,5.8280507386,-0.3822677657,-2.1273539734
 C,0,4.5332442046,-0.7184100963,-2.7216881129
 C,0,3.3793333211,-0.7854665364,-1.9005042352
 C,0,2.1312005396,-1.1173791481,-2.4860923155
 C,0,0.9386968651,-1.2157816307,-1.6420810031
 C,0,7.1709302645,0.19894327,-0.1661955735
 C,0,7.2687521396,0.4654183555,1.2701983538
 C,0,6.1053377018,0.395443586,2.078014586
 C,0,6.2067723328,0.6578692349,3.4677184849
 C,0,5.0093165129,0.5905214439,4.3077118568
 C,0,3.7608029288,0.2553124255,3.7248441562
 C,0,2.6061470447,0.187521983,4.5452439564
 C,0,1.3143812633,-0.1629350987,3.9514354221
 C,0,2.0525906234,-1.3385276243,-3.8628068606
 C,0,3.1867804743,-1.2578142231,-4.6572428607
 C,0,4.4199828906,-0.9844883175,-4.0879110992
 C,0,8.2994973595,0.2624088997,-0.9905697207
 C,0,8.2072552651,0.0135680308,-2.3500026134
 C,0,6.9824536005,-0.30442326,-2.9130453958
 C,0,2.7216323218,0.4564419478,5.9132199163
 C,0,3.943700726,0.7862443268,6.4754309056
 C,0,5.0758963471,0.852101865,5.6803676655
 C,0,8.494400491,0.7896546496,1.8614581519
 C,0,8.586667896,1.0426348538,3.2200779276
 C,0,7.4540939051,0.9774815349,4.014620262
 C,0,-1.1531100555,-0.8361949178,2.8162607164
 C,0,-1.0633646914,-0.5756002311,4.1735946114
 C,0,0.1582148541,-0.2427977314,4.7351071698
 C,0,-1.3391368266,-1.3953167103,-0.0299144705
 C,0,-1.4302697246,-1.653824845,-1.3875363857
 C,0,-0.3020725657,-1.5633729296,-2.1858320521
 N,0,3.1622080008,-1.6264707437,-6.0455970125
 N,0,2.5061109058,-1.0169294928,-6.9042877572
 C,0,1.6905986357,0.1289212438,-6.6267845968
 C,0,2.0941350918,1.2374630954,-5.8722842917
 C,0,1.266015012,2.3437804391,-5.7633470545
 C,0,0.0147385098,2.3521364924,-6.3887076147
 C,0,-0.3843011419,1.2557130845,-7.1572840942
 C,0,0.4666401289,0.1675653029,-7.2965014637
 O,0,-0.7549740692,3.4537231252,-6.228768677
 H,0,5.2872763936,-0.9792911548,-4.7430773311
 H,0,1.1075360798,-1.5857877506,-4.3379679934
 H,0,3.0686923737,1.2501343161,-5.3865830087
 H,0,1.5740226542,3.2196995175,-5.191433046
 H,0,-1.5868815884,3.3419784456,-6.7125810426
 H,0,0.1844931999,-0.6788064124,-7.9242585136
 H,0,-1.3519189201,1.2666923179,-7.6636747456
 H,0,6.9369026727,-0.4910073831,-3.9830095053
 H,0,9.0979381474,0.0696791966,-2.9766879366
 H,0,9.272931503,0.5109984886,-0.5756355911
 H,0,6.0217628692,1.1132006406,6.1480537909
 H,0,4.0144861273,0.9936874477,7.5437723197
 H,0,1.849897053,0.4111534401,6.5608775068
 H,0,7.5557720519,1.1803980672,5.077608493
 H,0,9.5507726301,1.2931047949,3.6640817181
 H,0,9.3991517196,0.8485380031,1.2618299965
 H,0,0.1993853306,-0.0440294348,5.8029501316
 H,0,-1.954302921,-0.6324788248,4.7999944276
 H,0,-2.1244921687,-1.0941270609,2.4022078122
 H,0,-0.4023141842,-1.7716895564,-3.2480014861
 H,0,-2.3895489043,-1.9280696193,-1.8277078498
 H,0,-2.2405356508,-1.4730783297,0.5725891771
 Recover connectivity data from disk.
 The following ModRedundant input section has been read:
 D      26      43      44      45 F                                           
 

 GradGradGradGradGradGradGradGradGradGradGradGradGradGradGradGradGradGrad
 Berny optimization.
 Initialization pass.
                           ----------------------------
                           !    Initial Parameters    !
                           ! (Angstroms and Degrees)  !
 --------------------------                            --------------------------
 ! Name  Definition              Value          Derivative Info.                !
 --------------------------------------------------------------------------------
 ! R1    R(1,2)                  1.4642         estimate D2E/DX2                !
 ! R2    R(1,6)                  1.4178         estimate D2E/DX2                !
 ! R3    R(1,40)                 1.399          estimate D2E/DX2                !
 ! R4    R(2,3)                  1.418          estimate D2E/DX2                !
 ! R5    R(2,37)                 1.3989         estimate D2E/DX2                !
 ! R6    R(3,4)                  1.4506         estimate D2E/DX2                !
 ! R7    R(3,24)                 1.4179         estimate D2E/DX2                !
 ! R8    R(4,5)                  1.4171         estimate D2E/DX2                !
 ! R9    R(4,7)                  1.4175         estimate D2E/DX2                !
 ! R10   R(5,6)                  1.4505         estimate D2E/DX2                !
 ! R11   R(5,10)                 1.4172         estimate D2E/DX2                !
 ! R12   R(6,16)                 1.418          estimate D2E/DX2                !
 ! R13   R(7,8)                  1.4175         estimate D2E/DX2                !
 ! R14   R(7,22)                 1.4505         estimate D2E/DX2                !
 ! R15   R(8,9)                  1.417          estimate D2E/DX2                !
 ! R16   R(8,19)                 1.4506         estimate D2E/DX2                !
 ! R17   R(9,10)                 1.4172         estimate D2E/DX2                !
 ! R18   R(9,11)                 1.4505         estimate D2E/DX2                !
 ! R19   R(10,14)                1.449          estimate D2E/DX2                !
 ! R20   R(11,12)                1.4178         estimate D2E/DX2                !
 ! R21   R(11,17)                1.4178         estimate D2E/DX2                !
 ! R22   R(12,13)                1.4638         estimate D2E/DX2                !
 ! R23   R(12,30)                1.3986         estimate D2E/DX2                !
 ! R24   R(13,14)                1.4179         estimate D2E/DX2                !
 ! R25   R(13,27)                1.3965         estimate D2E/DX2                !
 ! R26   R(14,15)                1.4181         estimate D2E/DX2                !
 ! R27   R(15,16)                1.4643         estimate D2E/DX2                !
 ! R28   R(15,25)                1.3966         estimate D2E/DX2                !
 ! R29   R(16,42)                1.3986         estimate D2E/DX2                !
 ! R30   R(17,18)                1.4642         estimate D2E/DX2                !
 ! R31   R(17,28)                1.399          estimate D2E/DX2                !
 ! R32   R(18,19)                1.4181         estimate D2E/DX2                !
 ! R33   R(18,34)                1.3989         estimate D2E/DX2                !
 ! R34   R(19,20)                1.4179         estimate D2E/DX2                !
 ! R35   R(20,21)                1.4642         estimate D2E/DX2                !
 ! R36   R(20,36)                1.399          estimate D2E/DX2                !
 ! R37   R(21,22)                1.4181         estimate D2E/DX2                !
 ! R38   R(21,33)                1.3989         estimate D2E/DX2                !
 ! R39   R(22,23)                1.4181         estimate D2E/DX2                !
 ! R40   R(23,24)                1.4643         estimate D2E/DX2                !
 ! R41   R(23,31)                1.3989         estimate D2E/DX2                !
 ! R42   R(24,39)                1.399          estimate D2E/DX2                !
 ! R43   R(25,26)                1.3871         estimate D2E/DX2                !
 ! R44   R(25,53)                1.0863         estimate D2E/DX2                !
 ! R45   R(26,27)                1.3855         estimate D2E/DX2                !
 ! R46   R(26,43)                1.4367         estimate D2E/DX2                !
 ! R47   R(27,52)                1.087          estimate D2E/DX2                !
 ! R48   R(28,29)                1.3851         estimate D2E/DX2                !
 ! R49   R(28,61)                1.087          estimate D2E/DX2                !
 ! R50   R(29,30)                1.385          estimate D2E/DX2                !
 ! R51   R(29,60)                1.0905         estimate D2E/DX2                !
 ! R52   R(30,59)                1.0871         estimate D2E/DX2                !
 ! R53   R(31,32)                1.385          estimate D2E/DX2                !
 ! R54   R(31,64)                1.0869         estimate D2E/DX2                !
 ! R55   R(32,33)                1.385          estimate D2E/DX2                !
 ! R56   R(32,63)                1.0906         estimate D2E/DX2                !
 ! R57   R(33,62)                1.087          estimate D2E/DX2                !
 ! R58   R(34,35)                1.385          estimate D2E/DX2                !
 ! R59   R(34,67)                1.087          estimate D2E/DX2                !
 ! R60   R(35,36)                1.385          estimate D2E/DX2                !
 ! R61   R(35,66)                1.0906         estimate D2E/DX2                !
 ! R62   R(36,65)                1.0869         estimate D2E/DX2                !
 ! R63   R(37,38)                1.385          estimate D2E/DX2                !
 ! R64   R(37,70)                1.087          estimate D2E/DX2                !
 ! R65   R(38,39)                1.385          estimate D2E/DX2                !
 ! R66   R(38,69)                1.0906         estimate D2E/DX2                !
 ! R67   R(39,68)                1.087          estimate D2E/DX2                !
 ! R68   R(40,41)                1.385          estimate D2E/DX2                !
 ! R69   R(40,73)                1.087          estimate D2E/DX2                !
 ! R70   R(41,42)                1.385          estimate D2E/DX2                !
 ! R71   R(41,72)                1.0905         estimate D2E/DX2                !
 ! R72   R(42,71)                1.087          estimate D2E/DX2                !
 ! R73   R(43,44)                1.2407         estimate D2E/DX2                !
 ! R74   R(44,45)                1.4335         estimate D2E/DX2                !
 ! R75   R(45,46)                1.4003         estimate D2E/DX2                !
 ! R76   R(45,50)                1.3957         estimate D2E/DX2                !
 ! R77   R(46,47)                1.3862         estimate D2E/DX2                !
 ! R78   R(46,54)                1.089          estimate D2E/DX2                !
 ! R79   R(47,48)                1.3989         estimate D2E/DX2                !
 ! R80   R(47,55)                1.0905         estimate D2E/DX2                !
 ! R81   R(48,49)                1.3972         estimate D2E/DX2                !
 ! R82   R(48,51)                1.3533         estimate D2E/DX2                !
 ! R83   R(49,50)                1.3884         estimate D2E/DX2                !
 ! R84   R(49,58)                1.0922         estimate D2E/DX2                !
 ! R85   R(50,57)                1.0909         estimate D2E/DX2                !
 ! R86   R(51,56)                0.9688         estimate D2E/DX2                !
 ! A1    A(2,1,6)              119.6699         estimate D2E/DX2                !
 ! A2    A(2,1,40)             121.0452         estimate D2E/DX2                !
 ! A3    A(6,1,40)             119.285          estimate D2E/DX2                !
 ! A4    A(1,2,3)              119.6825         estimate D2E/DX2                !
 ! A5    A(1,2,37)             121.0149         estimate D2E/DX2                !
 ! A6    A(3,2,37)             119.3025         estimate D2E/DX2                !
 ! A7    A(2,3,4)              120.3127         estimate D2E/DX2                !
 ! A8    A(2,3,24)             119.3753         estimate D2E/DX2                !
 ! A9    A(4,3,24)             120.312          estimate D2E/DX2                !
 ! A10   A(3,4,5)              119.9868         estimate D2E/DX2                !
 ! A11   A(3,4,7)              120.016          estimate D2E/DX2                !
 ! A12   A(5,4,7)              119.9971         estimate D2E/DX2                !
 ! A13   A(4,5,6)              120.0416         estimate D2E/DX2                !
 ! A14   A(4,5,10)             119.9842         estimate D2E/DX2                !
 ! A15   A(6,5,10)             119.9737         estimate D2E/DX2                !
 ! A16   A(1,6,5)              120.303          estimate D2E/DX2                !
 ! A17   A(1,6,16)             119.3108         estimate D2E/DX2                !
 ! A18   A(5,6,16)             120.3859         estimate D2E/DX2                !
 ! A19   A(4,7,8)              120.0012         estimate D2E/DX2                !
 ! A20   A(4,7,22)             119.9983         estimate D2E/DX2                !
 ! A21   A(8,7,22)             120.0005         estimate D2E/DX2                !
 ! A22   A(7,8,9)              119.995          estimate D2E/DX2                !
 ! A23   A(7,8,19)             120.0191         estimate D2E/DX2                !
 ! A24   A(9,8,19)             119.9858         estimate D2E/DX2                !
 ! A25   A(8,9,10)             119.9862         estimate D2E/DX2                !
 ! A26   A(8,9,11)             120.0271         estimate D2E/DX2                !
 ! A27   A(10,9,11)            119.9867         estimate D2E/DX2                !
 ! A28   A(5,10,9)             120.0351         estimate D2E/DX2                !
 ! A29   A(5,10,14)            119.9838         estimate D2E/DX2                !
 ! A30   A(9,10,14)            119.9811         estimate D2E/DX2                !
 ! A31   A(9,11,12)            120.3811         estimate D2E/DX2                !
 ! A32   A(9,11,17)            120.3245         estimate D2E/DX2                !
 ! A33   A(12,11,17)           119.2944         estimate D2E/DX2                !
 ! A34   A(11,12,13)           119.577          estimate D2E/DX2                !
 ! A35   A(11,12,30)           119.4385         estimate D2E/DX2                !
 ! A36   A(13,12,30)           120.9843         estimate D2E/DX2                !
 ! A37   A(12,13,14)           119.708          estimate D2E/DX2                !
 ! A38   A(12,13,27)           120.8445         estimate D2E/DX2                !
 ! A39   A(14,13,27)           119.4457         estimate D2E/DX2                !
 ! A40   A(10,14,13)           120.3648         estimate D2E/DX2                !
 ! A41   A(10,14,15)           120.4099         estimate D2E/DX2                !
 ! A42   A(13,14,15)           119.2231         estimate D2E/DX2                !
 ! A43   A(14,15,16)           119.6374         estimate D2E/DX2                !
 ! A44   A(14,15,25)           119.5828         estimate D2E/DX2                !
 ! A45   A(16,15,25)           120.7786         estimate D2E/DX2                !
 ! A46   A(6,16,15)            119.6005         estimate D2E/DX2                !
 ! A47   A(6,16,42)            119.3945         estimate D2E/DX2                !
 ! A48   A(15,16,42)           121.005          estimate D2E/DX2                !
 ! A49   A(11,17,18)           119.6648         estimate D2E/DX2                !
 ! A50   A(11,17,28)           119.2764         estimate D2E/DX2                !
 ! A51   A(18,17,28)           121.0587         estimate D2E/DX2                !
 ! A52   A(17,18,19)           119.6729         estimate D2E/DX2                !
 ! A53   A(17,18,34)           121.0215         estimate D2E/DX2                !
 ! A54   A(19,18,34)           119.3056         estimate D2E/DX2                !
 ! A55   A(8,19,18)            120.3245         estimate D2E/DX2                !
 ! A56   A(8,19,20)            120.3022         estimate D2E/DX2                !
 ! A57   A(18,19,20)           119.3733         estimate D2E/DX2                !
 ! A58   A(19,20,21)           119.6859         estimate D2E/DX2                !
 ! A59   A(19,20,36)           119.2902         estimate D2E/DX2                !
 ! A60   A(21,20,36)           121.0239         estimate D2E/DX2                !
 ! A61   A(20,21,22)           119.676          estimate D2E/DX2                !
 ! A62   A(20,21,33)           121.022          estimate D2E/DX2                !
 ! A63   A(22,21,33)           119.302          estimate D2E/DX2                !
 ! A64   A(7,22,21)            120.3149         estimate D2E/DX2                !
 ! A65   A(7,22,23)            120.318          estimate D2E/DX2                !
 ! A66   A(21,22,23)           119.3671         estimate D2E/DX2                !
 ! A67   A(22,23,24)           119.6798         estimate D2E/DX2                !
 ! A68   A(22,23,31)           119.2964         estimate D2E/DX2                !
 ! A69   A(24,23,31)           121.0238         estimate D2E/DX2                !
 ! A70   A(3,24,23)            119.6747         estimate D2E/DX2                !
 ! A71   A(3,24,39)            119.2907         estimate D2E/DX2                !
 ! A72   A(23,24,39)           121.0346         estimate D2E/DX2                !
 ! A73   A(15,25,26)           120.6205         estimate D2E/DX2                !
 ! A74   A(15,25,53)           121.078          estimate D2E/DX2                !
 ! A75   A(26,25,53)           118.2995         estimate D2E/DX2                !
 ! A76   A(25,26,27)           120.2597         estimate D2E/DX2                !
 ! A77   A(25,26,43)           121.6382         estimate D2E/DX2                !
 ! A78   A(27,26,43)           117.5772         estimate D2E/DX2                !
 ! A79   A(13,27,26)           120.783          estimate D2E/DX2                !
 ! A80   A(13,27,52)           121.6053         estimate D2E/DX2                !
 ! A81   A(26,27,52)           117.6106         estimate D2E/DX2                !
 ! A82   A(17,28,29)           121.095          estimate D2E/DX2                !
 ! A83   A(17,28,61)           120.5207         estimate D2E/DX2                !
 ! A84   A(29,28,61)           118.3842         estimate D2E/DX2                !
 ! A85   A(28,29,30)           119.9426         estimate D2E/DX2                !
 ! A86   A(28,29,60)           120.0258         estimate D2E/DX2                !
 ! A87   A(30,29,60)           120.0315         estimate D2E/DX2                !
 ! A88   A(12,30,29)           120.9529         estimate D2E/DX2                !
 ! A89   A(12,30,59)           120.584          estimate D2E/DX2                !
 ! A90   A(29,30,59)           118.463          estimate D2E/DX2                !
 ! A91   A(23,31,32)           121.0343         estimate D2E/DX2                !
 ! A92   A(23,31,64)           120.5608         estimate D2E/DX2                !
 ! A93   A(32,31,64)           118.4049         estimate D2E/DX2                !
 ! A94   A(31,32,33)           119.972          estimate D2E/DX2                !
 ! A95   A(31,32,63)           120.0132         estimate D2E/DX2                !
 ! A96   A(33,32,63)           120.0148         estimate D2E/DX2                !
 ! A97   A(21,33,32)           121.0279         estimate D2E/DX2                !
 ! A98   A(21,33,62)           120.5638         estimate D2E/DX2                !
 ! A99   A(32,33,62)           118.4083         estimate D2E/DX2                !
 ! A100  A(18,34,35)           121.0172         estimate D2E/DX2                !
 ! A101  A(18,34,67)           120.5738         estimate D2E/DX2                !
 ! A102  A(35,34,67)           118.409          estimate D2E/DX2                !
 ! A103  A(34,35,36)           119.9773         estimate D2E/DX2                !
 ! A104  A(34,35,66)           120.013          estimate D2E/DX2                !
 ! A105  A(36,35,66)           120.0097         estimate D2E/DX2                !
 ! A106  A(20,36,35)           121.0362         estimate D2E/DX2                !
 ! A107  A(20,36,65)           120.5557         estimate D2E/DX2                !
 ! A108  A(35,36,65)           118.4081         estimate D2E/DX2                !
 ! A109  A(2,37,38)            121.0222         estimate D2E/DX2                !
 ! A110  A(2,37,70)            120.5632         estimate D2E/DX2                !
 ! A111  A(38,37,70)           118.4146         estimate D2E/DX2                !
 ! A112  A(37,38,39)           119.9779         estimate D2E/DX2                !
 ! A113  A(37,38,69)           120.0089         estimate D2E/DX2                !
 ! A114  A(39,38,69)           120.0132         estimate D2E/DX2                !
 ! A115  A(24,39,38)           121.0313         estimate D2E/DX2                !
 ! A116  A(24,39,68)           120.5683         estimate D2E/DX2                !
 ! A117  A(38,39,68)           118.4004         estimate D2E/DX2                !
 ! A118  A(1,40,41)            121.0774         estimate D2E/DX2                !
 ! A119  A(1,40,73)            120.5371         estimate D2E/DX2                !
 ! A120  A(41,40,73)           118.3854         estimate D2E/DX2                !
 ! A121  A(40,41,42)           119.9464         estimate D2E/DX2                !
 ! A122  A(40,41,72)           120.0318         estimate D2E/DX2                !
 ! A123  A(42,41,72)           120.0217         estimate D2E/DX2                !
 ! A124  A(16,42,41)           120.9843         estimate D2E/DX2                !
 ! A125  A(16,42,71)           120.6196         estimate D2E/DX2                !
 ! A126  A(41,42,71)           118.3959         estimate D2E/DX2                !
 ! A127  A(26,43,44)           123.4905         estimate D2E/DX2                !
 ! A128  A(43,44,45)           124.0243         estimate D2E/DX2                !
 ! A129  A(44,45,46)           124.9679         estimate D2E/DX2                !
 ! A130  A(44,45,50)           115.3477         estimate D2E/DX2                !
 ! A131  A(46,45,50)           119.2955         estimate D2E/DX2                !
 ! A132  A(45,46,47)           120.1304         estimate D2E/DX2                !
 ! A133  A(45,46,54)           120.4922         estimate D2E/DX2                !
 ! A134  A(47,46,54)           119.3603         estimate D2E/DX2                !
 ! A135  A(46,47,48)           120.2651         estimate D2E/DX2                !
 ! A136  A(46,47,55)           120.899          estimate D2E/DX2                !
 ! A137  A(48,47,55)           118.8359         estimate D2E/DX2                !
 ! A138  A(47,48,49)           119.782          estimate D2E/DX2                !
 ! A139  A(47,48,51)           117.4369         estimate D2E/DX2                !
 ! A140  A(49,48,51)           122.7747         estimate D2E/DX2                !
 ! A141  A(48,49,50)           119.6806         estimate D2E/DX2                !
 ! A142  A(48,49,58)           120.0132         estimate D2E/DX2                !
 ! A143  A(50,49,58)           120.2915         estimate D2E/DX2                !
 ! A144  A(45,50,49)           120.7346         estimate D2E/DX2                !
 ! A145  A(45,50,57)           118.78           estimate D2E/DX2                !
 ! A146  A(49,50,57)           120.4821         estimate D2E/DX2                !
 ! A147  A(48,51,56)           109.6011         estimate D2E/DX2                !
 ! D1    D(6,1,2,3)             -0.5417         estimate D2E/DX2                !
 ! D2    D(6,1,2,37)           179.4078         estimate D2E/DX2                !
 ! D3    D(40,1,2,3)           179.4517         estimate D2E/DX2                !
 ! D4    D(40,1,2,37)           -0.5989         estimate D2E/DX2                !
 ! D5    D(2,1,6,5)              0.6022         estimate D2E/DX2                !
 ! D6    D(2,1,6,16)          -179.5866         estimate D2E/DX2                !
 ! D7    D(40,1,6,5)          -179.3913         estimate D2E/DX2                !
 ! D8    D(40,1,6,16)            0.4199         estimate D2E/DX2                !
 ! D9    D(2,1,40,41)          179.8841         estimate D2E/DX2                !
 ! D10   D(2,1,40,73)           -0.2348         estimate D2E/DX2                !
 ! D11   D(6,1,40,41)           -0.1225         estimate D2E/DX2                !
 ! D12   D(6,1,40,73)          179.7586         estimate D2E/DX2                !
 ! D13   D(1,2,3,4)              0.0577         estimate D2E/DX2                !
 ! D14   D(1,2,3,24)          -179.9425         estimate D2E/DX2                !
 ! D15   D(37,2,3,4)          -179.8927         estimate D2E/DX2                !
 ! D16   D(37,2,3,24)            0.1071         estimate D2E/DX2                !
 ! D17   D(1,2,37,38)          179.9968         estimate D2E/DX2                !
 ! D18   D(1,2,37,70)           -0.076          estimate D2E/DX2                !
 ! D19   D(3,2,37,38)           -0.0536         estimate D2E/DX2                !
 ! D20   D(3,2,37,70)          179.8736         estimate D2E/DX2                !
 ! D21   D(2,3,4,5)              0.3668         estimate D2E/DX2                !
 ! D22   D(2,3,4,7)           -179.6505         estimate D2E/DX2                !
 ! D23   D(24,3,4,5)          -179.633          estimate D2E/DX2                !
 ! D24   D(24,3,4,7)             0.3497         estimate D2E/DX2                !
 ! D25   D(2,3,24,23)          179.8626         estimate D2E/DX2                !
 ! D26   D(2,3,24,39)           -0.0884         estimate D2E/DX2                !
 ! D27   D(4,3,24,23)           -0.1376         estimate D2E/DX2                !
 ! D28   D(4,3,24,39)          179.9114         estimate D2E/DX2                !
 ! D29   D(3,4,5,6)             -0.3086         estimate D2E/DX2                !
 ! D30   D(3,4,5,10)           179.9385         estimate D2E/DX2                !
 ! D31   D(7,4,5,6)            179.7087         estimate D2E/DX2                !
 ! D32   D(7,4,5,10)            -0.0442         estimate D2E/DX2                !
 ! D33   D(3,4,7,8)            179.7937         estimate D2E/DX2                !
 ! D34   D(3,4,7,22)            -0.2353         estimate D2E/DX2                !
 ! D35   D(5,4,7,8)             -0.2236         estimate D2E/DX2                !
 ! D36   D(5,4,7,22)           179.7474         estimate D2E/DX2                !
 ! D37   D(4,5,6,1)             -0.1795         estimate D2E/DX2                !
 ! D38   D(4,5,6,16)          -179.9886         estimate D2E/DX2                !
 ! D39   D(10,5,6,1)           179.5734         estimate D2E/DX2                !
 ! D40   D(10,5,6,16)           -0.2357         estimate D2E/DX2                !
 ! D41   D(4,5,10,9)             0.3241         estimate D2E/DX2                !
 ! D42   D(4,5,10,14)         -179.6451         estimate D2E/DX2                !
 ! D43   D(6,5,10,9)          -179.429          estimate D2E/DX2                !
 ! D44   D(6,5,10,14)            0.6019         estimate D2E/DX2                !
 ! D45   D(1,6,16,15)          179.5972         estimate D2E/DX2                !
 ! D46   D(1,6,16,42)           -0.4398         estimate D2E/DX2                !
 ! D47   D(5,6,16,15)           -0.5917         estimate D2E/DX2                !
 ! D48   D(5,6,16,42)          179.3712         estimate D2E/DX2                !
 ! D49   D(4,7,8,9)              0.2117         estimate D2E/DX2                !
 ! D50   D(4,7,8,19)          -179.7534         estimate D2E/DX2                !
 ! D51   D(22,7,8,9)          -179.7593         estimate D2E/DX2                !
 ! D52   D(22,7,8,19)            0.2756         estimate D2E/DX2                !
 ! D53   D(4,7,22,21)          179.9808         estimate D2E/DX2                !
 ! D54   D(4,7,22,23)           -0.0907         estimate D2E/DX2                !
 ! D55   D(8,7,22,21)           -0.0482         estimate D2E/DX2                !
 ! D56   D(8,7,22,23)          179.8804         estimate D2E/DX2                !
 ! D57   D(7,8,9,10)             0.068          estimate D2E/DX2                !
 ! D58   D(7,8,9,11)          -179.945          estimate D2E/DX2                !
 ! D59   D(19,8,9,10)         -179.9669         estimate D2E/DX2                !
 ! D60   D(19,8,9,11)            0.0202         estimate D2E/DX2                !
 ! D61   D(7,8,19,18)          179.806          estimate D2E/DX2                !
 ! D62   D(7,8,19,20)           -0.1671         estimate D2E/DX2                !
 ! D63   D(9,8,19,18)           -0.1591         estimate D2E/DX2                !
 ! D64   D(9,8,19,20)          179.8678         estimate D2E/DX2                !
 ! D65   D(8,9,10,5)            -0.336          estimate D2E/DX2                !
 ! D66   D(8,9,10,14)          179.6332         estimate D2E/DX2                !
 ! D67   D(11,9,10,5)          179.677          estimate D2E/DX2                !
 ! D68   D(11,9,10,14)          -0.3539         estimate D2E/DX2                !
 ! D69   D(8,9,11,12)         -179.8815         estimate D2E/DX2                !
 ! D70   D(8,9,11,17)            0.097          estimate D2E/DX2                !
 ! D71   D(10,9,11,12)           0.1056         estimate D2E/DX2                !
 ! D72   D(10,9,11,17)        -179.916          estimate D2E/DX2                !
 ! D73   D(5,10,14,13)        -179.5872         estimate D2E/DX2                !
 ! D74   D(5,10,14,15)          -0.1283         estimate D2E/DX2                !
 ! D75   D(9,10,14,13)           0.4437         estimate D2E/DX2                !
 ! D76   D(9,10,14,15)         179.9025         estimate D2E/DX2                !
 ! D77   D(9,11,12,13)           0.0585         estimate D2E/DX2                !
 ! D78   D(9,11,12,30)         179.878          estimate D2E/DX2                !
 ! D79   D(17,11,12,13)       -179.9201         estimate D2E/DX2                !
 ! D80   D(17,11,12,30)         -0.1007         estimate D2E/DX2                !
 ! D81   D(9,11,17,18)          -0.0762         estimate D2E/DX2                !
 ! D82   D(9,11,17,28)         179.9836         estimate D2E/DX2                !
 ! D83   D(12,11,17,18)        179.9024         estimate D2E/DX2                !
 ! D84   D(12,11,17,28)         -0.0377         estimate D2E/DX2                !
 ! D85   D(11,12,13,14)          0.0294         estimate D2E/DX2                !
 ! D86   D(11,12,13,27)       -179.4852         estimate D2E/DX2                !
 ! D87   D(30,12,13,14)       -179.7872         estimate D2E/DX2                !
 ! D88   D(30,12,13,27)          0.6982         estimate D2E/DX2                !
 ! D89   D(11,12,30,29)          0.1887         estimate D2E/DX2                !
 ! D90   D(11,12,30,59)       -179.6894         estimate D2E/DX2                !
 ! D91   D(13,12,30,29)       -179.9944         estimate D2E/DX2                !
 ! D92   D(13,12,30,59)          0.1275         estimate D2E/DX2                !
 ! D93   D(12,13,14,10)         -0.2784         estimate D2E/DX2                !
 ! D94   D(12,13,14,15)       -179.7437         estimate D2E/DX2                !
 ! D95   D(27,13,14,10)        179.243          estimate D2E/DX2                !
 ! D96   D(27,13,14,15)         -0.2223         estimate D2E/DX2                !
 ! D97   D(12,13,27,26)       -177.7866         estimate D2E/DX2                !
 ! D98   D(12,13,27,52)          1.8175         estimate D2E/DX2                !
 ! D99   D(14,13,27,26)          2.6975         estimate D2E/DX2                !
 ! D100  D(14,13,27,52)       -177.6984         estimate D2E/DX2                !
 ! D101  D(10,14,15,16)         -0.6994         estimate D2E/DX2                !
 ! D102  D(10,14,15,25)        178.9091         estimate D2E/DX2                !
 ! D103  D(13,14,15,16)        178.7657         estimate D2E/DX2                !
 ! D104  D(13,14,15,25)         -1.6259         estimate D2E/DX2                !
 ! D105  D(14,15,16,6)           1.0581         estimate D2E/DX2                !
 ! D106  D(14,15,16,42)       -178.9042         estimate D2E/DX2                !
 ! D107  D(25,15,16,6)        -178.5456         estimate D2E/DX2                !
 ! D108  D(25,15,16,42)          1.4921         estimate D2E/DX2                !
 ! D109  D(14,15,25,26)          1.0551         estimate D2E/DX2                !
 ! D110  D(14,15,25,53)       -179.4736         estimate D2E/DX2                !
 ! D111  D(16,15,25,26)       -179.341          estimate D2E/DX2                !
 ! D112  D(16,15,25,53)          0.1303         estimate D2E/DX2                !
 ! D113  D(6,16,42,41)           0.1625         estimate D2E/DX2                !
 ! D114  D(6,16,42,71)        -179.6877         estimate D2E/DX2                !
 ! D115  D(15,16,42,41)       -179.8751         estimate D2E/DX2                !
 ! D116  D(15,16,42,71)          0.2747         estimate D2E/DX2                !
 ! D117  D(11,17,18,19)         -0.0618         estimate D2E/DX2                !
 ! D118  D(11,17,18,34)        179.9694         estimate D2E/DX2                !
 ! D119  D(28,17,18,19)        179.8773         estimate D2E/DX2                !
 ! D120  D(28,17,18,34)         -0.0916         estimate D2E/DX2                !
 ! D121  D(11,17,28,29)          0.0936         estimate D2E/DX2                !
 ! D122  D(11,17,28,61)       -179.9993         estimate D2E/DX2                !
 ! D123  D(18,17,28,29)       -179.8456         estimate D2E/DX2                !
 ! D124  D(18,17,28,61)          0.0614         estimate D2E/DX2                !
 ! D125  D(17,18,19,8)           0.179          estimate D2E/DX2                !
 ! D126  D(17,18,19,20)       -179.8476         estimate D2E/DX2                !
 ! D127  D(34,18,19,8)        -179.8516         estimate D2E/DX2                !
 ! D128  D(34,18,19,20)          0.1217         estimate D2E/DX2                !
 ! D129  D(17,18,34,35)        179.9541         estimate D2E/DX2                !
 ! D130  D(17,18,34,67)         -0.0607         estimate D2E/DX2                !
 ! D131  D(19,18,34,35)         -0.0148         estimate D2E/DX2                !
 ! D132  D(19,18,34,67)        179.9704         estimate D2E/DX2                !
 ! D133  D(8,19,20,21)          -0.1653         estimate D2E/DX2                !
 ! D134  D(8,19,20,36)         179.816          estimate D2E/DX2                !
 ! D135  D(18,19,20,21)        179.8614         estimate D2E/DX2                !
 ! D136  D(18,19,20,36)         -0.1573         estimate D2E/DX2                !
 ! D137  D(19,20,21,22)          0.3902         estimate D2E/DX2                !
 ! D138  D(19,20,21,33)       -179.6103         estimate D2E/DX2                !
 ! D139  D(36,20,21,22)       -179.5907         estimate D2E/DX2                !
 ! D140  D(36,20,21,33)          0.4087         estimate D2E/DX2                !
 ! D141  D(19,20,36,35)          0.0876         estimate D2E/DX2                !
 ! D142  D(19,20,36,65)       -179.8735         estimate D2E/DX2                !
 ! D143  D(21,20,36,35)       -179.9314         estimate D2E/DX2                !
 ! D144  D(21,20,36,65)          0.1075         estimate D2E/DX2                !
 ! D145  D(20,21,22,7)          -0.2838         estimate D2E/DX2                !
 ! D146  D(20,21,22,23)        179.787          estimate D2E/DX2                !
 ! D147  D(33,21,22,7)         179.7168         estimate D2E/DX2                !
 ! D148  D(33,21,22,23)         -0.2125         estimate D2E/DX2                !
 ! D149  D(20,21,33,32)       -179.8909         estimate D2E/DX2                !
 ! D150  D(20,21,33,62)          0.143          estimate D2E/DX2                !
 ! D151  D(22,21,33,32)          0.1086         estimate D2E/DX2                !
 ! D152  D(22,21,33,62)       -179.8575         estimate D2E/DX2                !
 ! D153  D(7,22,23,24)           0.3013         estimate D2E/DX2                !
 ! D154  D(7,22,23,31)        -179.7572         estimate D2E/DX2                !
 ! D155  D(21,22,23,24)       -179.7695         estimate D2E/DX2                !
 ! D156  D(21,22,23,31)          0.172          estimate D2E/DX2                !
 ! D157  D(22,23,24,3)          -0.1867         estimate D2E/DX2                !
 ! D158  D(22,23,24,39)        179.7634         estimate D2E/DX2                !
 ! D159  D(31,23,24,3)         179.8728         estimate D2E/DX2                !
 ! D160  D(31,23,24,39)         -0.1771         estimate D2E/DX2                !
 ! D161  D(22,23,31,32)         -0.026          estimate D2E/DX2                !
 ! D162  D(22,23,31,64)        179.9538         estimate D2E/DX2                !
 ! D163  D(24,23,31,32)        179.9147         estimate D2E/DX2                !
 ! D164  D(24,23,31,64)         -0.1055         estimate D2E/DX2                !
 ! D165  D(3,24,39,38)           0.0154         estimate D2E/DX2                !
 ! D166  D(3,24,39,68)        -179.9832         estimate D2E/DX2                !
 ! D167  D(23,24,39,38)       -179.9349         estimate D2E/DX2                !
 ! D168  D(23,24,39,68)          0.0665         estimate D2E/DX2                !
 ! D169  D(15,25,26,27)          1.4081         estimate D2E/DX2                !
 ! D170  D(15,25,26,43)        172.8955         estimate D2E/DX2                !
 ! D171  D(53,25,26,27)       -178.0776         estimate D2E/DX2                !
 ! D172  D(53,25,26,43)         -6.5902         estimate D2E/DX2                !
 ! D173  D(25,26,27,13)         -3.3146         estimate D2E/DX2                !
 ! D174  D(25,26,27,52)        177.0659         estimate D2E/DX2                !
 ! D175  D(43,26,27,13)       -175.1405         estimate D2E/DX2                !
 ! D176  D(43,26,27,52)          5.24           estimate D2E/DX2                !
 ! D177  D(25,26,43,44)         65.2851         estimate D2E/DX2                !
 ! D178  D(27,26,43,44)       -123.0086         estimate D2E/DX2                !
 ! D179  D(17,28,29,30)         -0.0085         estimate D2E/DX2                !
 ! D180  D(17,28,29,60)        179.8859         estimate D2E/DX2                !
 ! D181  D(61,28,29,30)       -179.9175         estimate D2E/DX2                !
 ! D182  D(61,28,29,60)         -0.0231         estimate D2E/DX2                !
 ! D183  D(28,29,30,12)         -0.1349         estimate D2E/DX2                !
 ! D184  D(28,29,30,59)        179.7457         estimate D2E/DX2                !
 ! D185  D(60,29,30,12)        179.9707         estimate D2E/DX2                !
 ! D186  D(60,29,30,59)         -0.1487         estimate D2E/DX2                !
 ! D187  D(23,31,32,33)         -0.0805         estimate D2E/DX2                !
 ! D188  D(23,31,32,63)        179.9384         estimate D2E/DX2                !
 ! D189  D(64,31,32,33)        179.9393         estimate D2E/DX2                !
 ! D190  D(64,31,32,63)         -0.0418         estimate D2E/DX2                !
 ! D191  D(31,32,33,21)          0.0385         estimate D2E/DX2                !
 ! D192  D(31,32,33,62)       -179.9947         estimate D2E/DX2                !
 ! D193  D(63,32,33,21)       -179.9804         estimate D2E/DX2                !
 ! D194  D(63,32,33,62)         -0.0136         estimate D2E/DX2                !
 ! D195  D(18,34,35,36)         -0.0569         estimate D2E/DX2                !
 ! D196  D(18,34,35,66)        179.9465         estimate D2E/DX2                !
 ! D197  D(67,34,35,36)        179.9575         estimate D2E/DX2                !
 ! D198  D(67,34,35,66)         -0.039          estimate D2E/DX2                !
 ! D199  D(34,35,36,20)          0.0199         estimate D2E/DX2                !
 ! D200  D(34,35,36,65)        179.9819         estimate D2E/DX2                !
 ! D201  D(66,35,36,20)       -179.9835         estimate D2E/DX2                !
 ! D202  D(66,35,36,65)         -0.0216         estimate D2E/DX2                !
 ! D203  D(2,37,38,39)          -0.02           estimate D2E/DX2                !
 ! D204  D(2,37,38,69)         179.9819         estimate D2E/DX2                !
 ! D205  D(70,37,38,39)       -179.9487         estimate D2E/DX2                !
 ! D206  D(70,37,38,69)          0.0531         estimate D2E/DX2                !
 ! D207  D(37,38,39,24)          0.0394         estimate D2E/DX2                !
 ! D208  D(37,38,39,68)       -179.962          estimate D2E/DX2                !
 ! D209  D(69,38,39,24)       -179.9624         estimate D2E/DX2                !
 ! D210  D(69,38,39,68)          0.0361         estimate D2E/DX2                !
 ! D211  D(1,40,41,42)          -0.1594         estimate D2E/DX2                !
 ! D212  D(1,40,41,72)         179.859          estimate D2E/DX2                !
 ! D213  D(73,40,41,42)        179.9569         estimate D2E/DX2                !
 ! D214  D(73,40,41,72)         -0.0246         estimate D2E/DX2                !
 ! D215  D(40,41,42,16)          0.1391         estimate D2E/DX2                !
 ! D216  D(40,41,42,71)        179.9926         estimate D2E/DX2                !
 ! D217  D(72,41,42,16)       -179.8793         estimate D2E/DX2                !
 ! D218  D(72,41,42,71)         -0.0259         estimate D2E/DX2                !
 ! D219  D(26,43,44,45)          0.0            Frozen                          !
 ! D220  D(43,44,45,46)         47.7042         estimate D2E/DX2                !
 ! D221  D(43,44,45,50)       -139.5377         estimate D2E/DX2                !
 ! D222  D(44,45,46,47)        174.3388         estimate D2E/DX2                !
 ! D223  D(44,45,46,54)         -4.1498         estimate D2E/DX2                !
 ! D224  D(50,45,46,47)          1.8447         estimate D2E/DX2                !
 ! D225  D(50,45,46,54)       -176.6439         estimate D2E/DX2                !
 ! D226  D(44,45,50,49)       -177.054          estimate D2E/DX2                !
 ! D227  D(44,45,50,57)          3.6028         estimate D2E/DX2                !
 ! D228  D(46,45,50,49)         -3.8567         estimate D2E/DX2                !
 ! D229  D(46,45,50,57)        176.8002         estimate D2E/DX2                !
 ! D230  D(45,46,47,48)          0.9744         estimate D2E/DX2                !
 ! D231  D(45,46,47,55)       -179.0753         estimate D2E/DX2                !
 ! D232  D(54,46,47,48)        179.4802         estimate D2E/DX2                !
 ! D233  D(54,46,47,55)         -0.5696         estimate D2E/DX2                !
 ! D234  D(46,47,48,49)         -1.832          estimate D2E/DX2                !
 ! D235  D(46,47,48,51)        179.0634         estimate D2E/DX2                !
 ! D236  D(55,47,48,49)        178.2167         estimate D2E/DX2                !
 ! D237  D(55,47,48,51)         -0.8878         estimate D2E/DX2                !
 ! D238  D(47,48,49,50)         -0.1526         estimate D2E/DX2                !
 ! D239  D(47,48,49,58)       -178.7653         estimate D2E/DX2                !
 ! D240  D(51,48,49,50)        178.9022         estimate D2E/DX2                !
 ! D241  D(51,48,49,58)          0.2895         estimate D2E/DX2                !
 ! D242  D(47,48,51,56)        179.4988         estimate D2E/DX2                !
 ! D243  D(49,48,51,56)          0.4231         estimate D2E/DX2                !
 ! D244  D(48,49,50,45)          3.0127         estimate D2E/DX2                !
 ! D245  D(48,49,50,57)       -177.6553         estimate D2E/DX2                !
 ! D246  D(58,49,50,45)       -178.3785         estimate D2E/DX2                !
 ! D247  D(58,49,50,57)          0.9535         estimate D2E/DX2                !
 --------------------------------------------------------------------------------
 Trust Radius=3.00D-01 FncErr=1.00D-07 GrdErr=1.00D-06
 Number of steps in this run=    438 maximum allowed number of steps=    438.
 GradGradGradGradGradGradGradGradGradGradGradGradGradGradGradGradGradGrad

 Symmetry turned off by external request.
 Stoichiometry    C48H22N2O
 Framework group  C1[X(C48H22N2O)]
 Deg. of freedom   213
 Full point group                 C1      NOp   1
                          Input orientation:                          
 ---------------------------------------------------------------------
 Center     Atomic      Atomic             Coordinates (Angstroms)
 Number     Number       Type             X           Y           Z
 ---------------------------------------------------------------------
      1          6           0       -0.119117   -1.044593    0.558150
      2          6           0       -0.024073   -0.769001    1.993046
      3          6           0        1.229568   -0.427324    2.560939
      4          6           0        2.414078   -0.349010    1.727204
      5          6           0        2.319987   -0.606999    0.336990
      6          6           0        1.041150   -0.955930   -0.251902
      7          6           0        3.665467   -0.014136    2.302760
      8          6           0        4.823549    0.058021    1.488505
      9          6           0        4.729354   -0.200235    0.098381
     10          6           0        3.476964   -0.529199   -0.477678
     11          6           0        5.914140   -0.127764   -0.735260
     12          6           0        5.828051   -0.382268   -2.127354
     13          6           0        4.533244   -0.718410   -2.721688
     14          6           0        3.379333   -0.785467   -1.900504
     15          6           0        2.131201   -1.117379   -2.486092
     16          6           0        0.938697   -1.215782   -1.642081
     17          6           0        7.170930    0.198943   -0.166196
     18          6           0        7.268752    0.465418    1.270198
     19          6           0        6.105338    0.395444    2.078015
     20          6           0        6.206772    0.657869    3.467718
     21          6           0        5.009317    0.590521    4.307712
     22          6           0        3.760803    0.255312    3.724844
     23          6           0        2.606147    0.187522    4.545244
     24          6           0        1.314381   -0.162935    3.951435
     25          6           0        2.052591   -1.338528   -3.862807
     26          6           0        3.186780   -1.257814   -4.657243
     27          6           0        4.419983   -0.984488   -4.087911
     28          6           0        8.299497    0.262409   -0.990570
     29          6           0        8.207255    0.013568   -2.350003
     30          6           0        6.982454   -0.304423   -2.913045
     31          6           0        2.721632    0.456442    5.913220
     32          6           0        3.943701    0.786244    6.475431
     33          6           0        5.075896    0.852102    5.680368
     34          6           0        8.494400    0.789655    1.861458
     35          6           0        8.586668    1.042635    3.220078
     36          6           0        7.454094    0.977482    4.014620
     37          6           0       -1.153110   -0.836195    2.816261
     38          6           0       -1.063365   -0.575600    4.173595
     39          6           0        0.158215   -0.242798    4.735107
     40          6           0       -1.339137   -1.395317   -0.029914
     41          6           0       -1.430270   -1.653825   -1.387536
     42          6           0       -0.302073   -1.563373   -2.185832
     43          7           0        3.162208   -1.626471   -6.045597
     44          7           0        2.506111   -1.016929   -6.904288
     45          6           0        1.690599    0.128921   -6.626785
     46          6           0        2.094135    1.237463   -5.872284
     47          6           0        1.266015    2.343780   -5.763347
     48          6           0        0.014739    2.352136   -6.388708
     49          6           0       -0.384301    1.255713   -7.157284
     50          6           0        0.466640    0.167565   -7.296501
     51          8           0       -0.754974    3.453723   -6.228769
     52          1           0        5.287276   -0.979291   -4.743077
     53          1           0        1.107536   -1.585788   -4.337968
     54          1           0        3.068692    1.250134   -5.386583
     55          1           0        1.574023    3.219700   -5.191433
     56          1           0       -1.586882    3.341978   -6.712581
     57          1           0        0.184493   -0.678806   -7.924259
     58          1           0       -1.351919    1.266692   -7.663675
     59          1           0        6.936903   -0.491007   -3.983010
     60          1           0        9.097938    0.069679   -2.976688
     61          1           0        9.272932    0.510998   -0.575636
     62          1           0        6.021763    1.113201    6.148054
     63          1           0        4.014486    0.993687    7.543772
     64          1           0        1.849897    0.411153    6.560878
     65          1           0        7.555772    1.180398    5.077608
     66          1           0        9.550773    1.293105    3.664082
     67          1           0        9.399152    0.848538    1.261830
     68          1           0        0.199385   -0.044029    5.802950
     69          1           0       -1.954303   -0.632479    4.799994
     70          1           0       -2.124492   -1.094127    2.402208
     71          1           0       -0.402314   -1.771690   -3.248001
     72          1           0       -2.389549   -1.928070   -1.827708
     73          1           0       -2.240536   -1.473078    0.572589
 ---------------------------------------------------------------------
 Rotational constants (GHZ):      0.0888611      0.0445989      0.0325234
 Standard basis: CC-pVDZ (5D, 7F)
   824 basis functions,  1837 primitive gaussians,   875 cartesian basis functions
   166 alpha electrons      166 beta electrons
       nuclear repulsion energy      5899.3708806961 Hartrees.
 NAtoms=   73 NActive=   73 NUniq=   73 SFac= 1.00D+00 NAtFMM=   60 NAOKFM=T Big=T
 Integral buffers will be    131072 words long.
 Raffenetti 1 integral format.
 Two-electron integral symmetry is turned off.
 ------------------------------------------------------------------------------
 Polarizable Continuum Model (PCM)
 =================================
 Model                : PCM (using non-symmetric T matrix).
 Atomic radii         : UFF (Universal Force Field).
 Polarization charges : Total charges.
 Charge compensation  : None.
 Solution method      : On-the-fly selection.
 Cavity type          : Scaled VdW (van der Waals Surface) (Alpha=1.100).
 Cavity algorithm     : GePol (No added spheres)
                        Default sphere list used, NSphG=   73.
                        Lebedev-Laikov grids with approx.  5.0 points / Ang**2.
                        Smoothing algorithm: Karplus/York (Gamma=1.0000).
                        Polarization charges: spherical gaussians, with
                                              point-specific exponents (IZeta= 3).
                        Self-potential: point-specific (ISelfS= 7).
                        Self-field    : sphere-specific E.n sum rule (ISelfD= 2).
 1st derivatives      : Analytical E(r).r(x)/FMM algorithm (CHGder, D1EAlg=3).
                        Cavity 1st derivative terms included.
 Solvent              : Water, Eps=  78.355300 Eps(inf)=   1.777849
 ------------------------------------------------------------------------------
 One-electron integrals computed using PRISM.
 NBasis=   824 RedAO= T EigKep=  1.31D-05  NBF=   824
 NBsUse=   824 1.00D-06 EigRej= -1.00D+00 NBFU=   824
 Initial guess from the checkpoint file:  "Azo0.chk"
 B after Tr=     5.849681   -0.060078   -0.887258
         Rot=   -0.394271   -0.430359    0.550209    0.597170 Ang=-226.44 deg.
 Requested convergence on RMS density matrix=1.00D-08 within 128 cycles.
 Requested convergence on MAX density matrix=1.00D-06.
 Requested convergence on             energy=1.00D-06.
 No special actions if energy rises.
 Inv3:  Mode=1 IEnd=    76750092.
 Iteration    1 A*A^-1 deviation from unit magnitude is 7.99D-15 for    244.
 Iteration    1 A*A^-1 deviation from orthogonality  is 3.38D-15 for   3518    911.
 Iteration    1 A^-1*A deviation from unit magnitude is 8.88D-15 for   2276.
 Iteration    1 A^-1*A deviation from orthogonality  is 1.50D-09 for   1793   1788.
 Iteration    2 A*A^-1 deviation from unit magnitude is 1.33D-14 for   1768.
 Iteration    2 A*A^-1 deviation from orthogonality  is 9.86D-15 for   2466   2276.
 Iteration    2 A^-1*A deviation from unit magnitude is 1.33D-15 for    756.
 Iteration    2 A^-1*A deviation from orthogonality  is 4.10D-16 for   3241    241.
 Error on total polarization charges =  0.01915
 SCF Done:  E(RCAM-B3LYP) =  -2026.25034144     A.U. after    9 cycles
            NFock=  9  Conv=0.18D-08     -V/T= 2.0059
 DoSCS=F DFT=T ScalE2(SS,OS)=  1.000000  1.000000
 ExpMin= 1.22D-01 ExpMax= 1.17D+04 ExpMxC= 4.01D+02 IAcc=3 IRadAn=         5 AccDes= 0.00D+00
 HarFok:  IExCor=  205 AccDes= 0.00D+00 IRadAn=         5 IDoV=-2 UseB2=F ITyADJ=14
 ICtDFT= 12500011 ScaDFX=  1.000000  1.000000  1.000000  1.000000
 Range of M.O.s used for correlation:    52   824
 NBasis=   824 NAE=   166 NBE=   166 NFC=    51 NFV=     0
 NROrb=    773 NOA=   115 NOB=   115 NVA=   658 NVB=   658

 **** Warning!!: The largest alpha MO coefficient is  0.38593580D+02

 Would need an additional        340683400000 words for in-memory AO integral storage.
 NEqPCM:  Using equilibrium solvation (IEInf=0, Eps=  78.3553, EpsInf=   1.7778)
    12 initial guesses have been made.
 Convergence on wavefunction:    0.000001000000000
 Iteration     1 Dimension    12 NMult     0 NNew     12
 CISAX will form    12 AO SS matrices at one time.
 New state      1 was old state      2
 New state      2 was old state      1
 New state      3 was old state      4
 Iteration     2 Dimension    18 NMult    12 NNew      6
 Iteration     3 Dimension    24 NMult    18 NNew      6
 New state      1 was old state      2
 New state      2 was old state      1
 Iteration     4 Dimension    30 NMult    24 NNew      6
 Iteration     5 Dimension    36 NMult    30 NNew      6
 Iteration     6 Dimension    42 NMult    36 NNew      6
 Iteration     7 Dimension    48 NMult    42 NNew      6
 Iteration     8 Dimension    54 NMult    48 NNew      6
 Iteration     9 Dimension    60 NMult    54 NNew      6
 Iteration    10 Dimension    66 NMult    60 NNew      6
 Iteration    11 Dimension    72 NMult    66 NNew      6
 Iteration    12 Dimension    78 NMult    72 NNew      6
 Iteration    13 Dimension    84 NMult    78 NNew      6
 Iteration    14 Dimension    88 NMult    84 NNew      4
 Iteration    15 Dimension    90 NMult    88 NNew      2
 ***********************************************************************
 Excited states from <AA,BB:AA,BB> singles matrix:
 ***********************************************************************
 
 Ground to excited state transition densities written to RWF  633
 Ground to excited state transition electric dipole moments (Au):
       state          X           Y           Z        Dip. S.      Osc.
         1        -0.3466      0.4879     -1.0253      1.4095      0.0977
         2        -0.2920     -0.0233     -0.0861      0.0932      0.0075
         3        -0.0984     -0.1061     -0.4991      0.2700      0.0229
 Ground to excited state transition velocity dipole moments (Au):
       state          X           Y           Z        Dip. S.      Osc.
         1         0.0253     -0.0581      0.1080      0.0157      0.1006
         2         0.0356      0.0032      0.0101      0.0014      0.0076
         3         0.0136      0.0141      0.0627      0.0043      0.0226
 Ground to excited state transition magnetic dipole moments (Au):
       state          X           Y           Z
         1        -1.6329     -0.3605     -0.9908
         2        -0.0685     -0.0415      0.0677
         3         0.0327     -0.5765      0.2016
 Ground to excited state transition velocity quadrupole moments (Au):
       state          XX          YY          ZZ          XY          XZ          YZ
         1         0.2385      0.0297     -0.9830     -0.0371      0.4489      0.7032
         2         0.4590     -0.0300     -0.0547      0.0002     -0.0971      0.0194
         3         0.1956     -0.0355     -0.0092      0.0684      0.3325     -0.0832
 <0|del|b> * <b|rxdel|0> + <0|del|b> * <b|delr+rdel|0>
 Rotatory Strengths (R) in cgs (10**-40 erg-esu-cm/Gauss)
       state          XX          YY          ZZ    R(velocity)    E-M Angle
         1      -217.6655   -430.4294   -218.4138   -288.8362      121.54
         2         2.5383     -3.1130    -10.4476     -3.6741      118.92
         3        11.3439     21.3399     -5.2143      9.1565       82.95
 1/2[<0|r|b>*<b|rxdel|0> + (<0|rxdel|b>*<b|r|0>)*]
 Rotatory Strengths (R) in cgs (10**-40 erg-esu-cm/Gauss)
       state          XX          YY          ZZ     R(length)
         1      -400.2261    124.3554   -718.3971   -331.4226
         2       -14.1513     -0.6836      4.1229     -3.5706
         3         2.2749    -43.2370     71.1568     10.0649
  1/2[<0|del|b>*<b|r|0> + (<0|r|b>*<b|del|0>)*] (Au)
       state          X           Y           Z        Dip. S.   Osc.(frdel)
         1        -0.0088     -0.0284     -0.1108      0.1479      0.0986
         2        -0.0104     -0.0001     -0.0009      0.0113      0.0076
         3        -0.0013     -0.0015     -0.0313      0.0341      0.0227

 Excitation energies and oscillator strengths:
 
 Excited state symmetry could not be determined.
 Excited State   1:      Singlet-?Sym    2.8288 eV  438.29 nm  f=0.0977  <S**2>=0.000
     155 ->170         0.10472
     156 ->170        -0.13591
     157 ->170         0.12064
     162 ->167        -0.14901
     162 ->170        -0.23115
     163 ->167         0.25539
     163 ->170         0.39939
     166 ->167         0.18796
     166 ->170         0.19602
 This state for optimization and/or second-order correction.
 Total Energy, E(TD-HF/TD-KS) =  -2026.14638366    
 Copying the excited state density for this state as the 1-particle RhoCI density.
 
 Excited state symmetry could not be determined.
 Excited State   2:      Singlet-?Sym    3.2893 eV  376.94 nm  f=0.0075  <S**2>=0.000
     165 ->167         0.41930
     165 ->168        -0.14552
     165 ->170        -0.10543
     166 ->167         0.16122
     166 ->168         0.47142
 
 Excited state symmetry could not be determined.
 Excited State   3:      Singlet-?Sym    3.4552 eV  358.84 nm  f=0.0229  <S**2>=0.000
     164 ->169         0.15501
     165 ->167        -0.14519
     165 ->168        -0.40236
     166 ->167         0.45582
     166 ->168        -0.15681
     166 ->170        -0.14055
 SavETr:  write IOETrn=   770 NScale= 10 NData=  16 NLR=1 NState=    3 LETran=      64.
          IDoAtm=11111111111111111111111111111111111111111111111111
          IDoAtm=11111111111111111111111
 NEqPCM:  Using equilibrium solvation (IEInf=0, Eps=  78.3553, EpsInf=   1.7778)
          Differentiating once with respect to electric field.
                with respect to dipole field.
          Differentiating once with respect to nuclear coordinates.
          There are     1 degrees of freedom in the 1st order CPHF.  IDoFFX=0 NUNeed=     1.
 LinEq1:  Iter=  0 NonCon=     1 RMS=5.44D-04 Max=2.49D-02 NDo=     1
 AX will form     1 AO Fock derivatives at one time.
 LinEq1:  Iter=  1 NonCon=     1 RMS=3.06D-04 Max=2.27D-02 NDo=     1
 LinEq1:  Iter=  2 NonCon=     1 RMS=1.30D-04 Max=6.01D-03 NDo=     1
 LinEq1:  Iter=  3 NonCon=     1 RMS=6.42D-05 Max=4.27D-03 NDo=     1
 LinEq1:  Iter=  4 NonCon=     1 RMS=3.02D-05 Max=1.71D-03 NDo=     1
 LinEq1:  Iter=  5 NonCon=     1 RMS=1.85D-05 Max=1.19D-03 NDo=     1
 LinEq1:  Iter=  6 NonCon=     1 RMS=1.10D-05 Max=9.32D-04 NDo=     1
 LinEq1:  Iter=  7 NonCon=     1 RMS=6.25D-06 Max=4.27D-04 NDo=     1
 LinEq1:  Iter=  8 NonCon=     1 RMS=3.74D-06 Max=2.44D-04 NDo=     1
 LinEq1:  Iter=  9 NonCon=     1 RMS=1.88D-06 Max=1.33D-04 NDo=     1
 LinEq1:  Iter= 10 NonCon=     1 RMS=1.11D-06 Max=1.35D-04 NDo=     1
 LinEq1:  Iter= 11 NonCon=     1 RMS=5.95D-07 Max=4.84D-05 NDo=     1
 LinEq1:  Iter= 12 NonCon=     1 RMS=2.68D-07 Max=1.83D-05 NDo=     1
 LinEq1:  Iter= 13 NonCon=     1 RMS=1.30D-07 Max=7.30D-06 NDo=     1
 LinEq1:  Iter= 14 NonCon=     1 RMS=6.95D-08 Max=4.78D-06 NDo=     1
 LinEq1:  Iter= 15 NonCon=     1 RMS=2.90D-08 Max=2.20D-06 NDo=     1
 LinEq1:  Iter= 16 NonCon=     1 RMS=1.80D-08 Max=1.57D-06 NDo=     1
 LinEq1:  Iter= 17 NonCon=     1 RMS=7.55D-09 Max=5.02D-07 NDo=     1
 LinEq1:  Iter= 18 NonCon=     1 RMS=3.90D-09 Max=1.54D-07 NDo=     1
 LinEq1:  Iter= 19 NonCon=     1 RMS=1.92D-09 Max=1.00D-07 NDo=     1
 LinEq1:  Iter= 20 NonCon=     1 RMS=6.37D-10 Max=2.84D-08 NDo=     1
 LinEq1:  Iter= 21 NonCon=     1 RMS=3.65D-10 Max=2.06D-08 NDo=     1
 LinEq1:  Iter= 22 NonCon=     1 RMS=1.59D-10 Max=8.06D-09 NDo=     1
 LinEq1:  Iter= 23 NonCon=     1 RMS=8.49D-11 Max=4.96D-09 NDo=     1
 LinEq1:  Iter= 24 NonCon=     1 RMS=4.49D-11 Max=2.62D-09 NDo=     1
 LinEq1:  Iter= 25 NonCon=     1 RMS=2.32D-11 Max=1.60D-09 NDo=     1
 LinEq1:  Iter= 26 NonCon=     0 RMS=1.09D-11 Max=6.44D-10 NDo=     1
 Linear equations converged to 1.000D-10 1.000D-09 after    26 iterations.
 End of Minotr F.D. properties file   721 does not exist.
 End of Minotr F.D. properties file   722 does not exist.
 End of Minotr F.D. properties file   788 does not exist.

 **********************************************************************

            Population analysis using the SCF density.

 **********************************************************************

 Alpha  occ. eigenvalues --  -19.25160 -14.46994 -14.46614 -10.33615 -10.30568
 Alpha  occ. eigenvalues --  -10.29694 -10.28907 -10.28898 -10.28778 -10.28740
 Alpha  occ. eigenvalues --  -10.28740 -10.28701 -10.28695 -10.28670 -10.28615
 Alpha  occ. eigenvalues --  -10.28532 -10.28527 -10.28464 -10.28449 -10.28427
 Alpha  occ. eigenvalues --  -10.28426 -10.28410 -10.28385 -10.28383 -10.28336
 Alpha  occ. eigenvalues --  -10.28335 -10.28329 -10.28326 -10.28305 -10.28299
 Alpha  occ. eigenvalues --  -10.28048 -10.27906 -10.27549 -10.27396 -10.27191
 Alpha  occ. eigenvalues --  -10.27105 -10.27100 -10.27049 -10.27043 -10.27025
 Alpha  occ. eigenvalues --  -10.27025 -10.27012 -10.27006 -10.27006 -10.26968
 Alpha  occ. eigenvalues --  -10.26924 -10.26924 -10.26910 -10.26909 -10.26908
 Alpha  occ. eigenvalues --  -10.26896  -1.15309  -1.13173  -1.01086  -0.98811
 Alpha  occ. eigenvalues --   -0.98613  -0.96269  -0.95801  -0.95477  -0.95000
 Alpha  occ. eigenvalues --   -0.93757  -0.90933  -0.90299  -0.90286  -0.88800
 Alpha  occ. eigenvalues --   -0.88224  -0.86669  -0.85004  -0.84469  -0.84363
 Alpha  occ. eigenvalues --   -0.84263  -0.83555  -0.83536  -0.82812  -0.79881
 Alpha  occ. eigenvalues --   -0.79783  -0.79406  -0.76560  -0.74495  -0.73561
 Alpha  occ. eigenvalues --   -0.72976  -0.72898  -0.71781  -0.71440  -0.70736
 Alpha  occ. eigenvalues --   -0.69654  -0.69479  -0.68694  -0.66799  -0.66516
 Alpha  occ. eigenvalues --   -0.65144  -0.63839  -0.62819  -0.62625  -0.62368
 Alpha  occ. eigenvalues --   -0.62173  -0.60803  -0.60367  -0.59383  -0.58877
 Alpha  occ. eigenvalues --   -0.57447  -0.56982  -0.56757  -0.56296  -0.55174
 Alpha  occ. eigenvalues --   -0.54947  -0.54163  -0.53559  -0.52946  -0.52419
 Alpha  occ. eigenvalues --   -0.52268  -0.51980  -0.51756  -0.51174  -0.51128
 Alpha  occ. eigenvalues --   -0.50489  -0.50244  -0.50067  -0.49809  -0.49594
 Alpha  occ. eigenvalues --   -0.49302  -0.49282  -0.49164  -0.49114  -0.48996
 Alpha  occ. eigenvalues --   -0.48838  -0.48160  -0.47645  -0.47037  -0.46836
 Alpha  occ. eigenvalues --   -0.45812  -0.45587  -0.45064  -0.44940  -0.44553
 Alpha  occ. eigenvalues --   -0.44392  -0.44320  -0.44188  -0.44020  -0.42620
 Alpha  occ. eigenvalues --   -0.42450  -0.42125  -0.41145  -0.40890  -0.40843
 Alpha  occ. eigenvalues --   -0.40513  -0.40047  -0.38960  -0.38590  -0.38331
 Alpha  occ. eigenvalues --   -0.37918  -0.37689  -0.36321  -0.36119  -0.32771
 Alpha  occ. eigenvalues --   -0.32124  -0.31683  -0.31475  -0.31312  -0.31230
 Alpha  occ. eigenvalues --   -0.30949  -0.30235  -0.27375  -0.26678  -0.24855
 Alpha  occ. eigenvalues --   -0.24574
 Alpha virt. eigenvalues --   -0.04014  -0.03785  -0.02784  -0.02092   0.00649
 Alpha virt. eigenvalues --    0.01097   0.01369   0.02561   0.02726   0.03094
 Alpha virt. eigenvalues --    0.04254   0.06640   0.07570   0.07928   0.10427
 Alpha virt. eigenvalues --    0.10649   0.11103   0.11134   0.11389   0.11416
 Alpha virt. eigenvalues --    0.11930   0.12212   0.12263   0.12893   0.13977
 Alpha virt. eigenvalues --    0.14209   0.14861   0.15721   0.16215   0.16542
 Alpha virt. eigenvalues --    0.17353   0.17821   0.18487   0.19742   0.19830
 Alpha virt. eigenvalues --    0.21290   0.21708   0.21892   0.22212   0.22726
 Alpha virt. eigenvalues --    0.23775   0.24384   0.24627   0.25342   0.26154
 Alpha virt. eigenvalues --    0.26340   0.26454   0.26490   0.27324   0.28038
 Alpha virt. eigenvalues --    0.28411   0.28523   0.28595   0.28754   0.28991
 Alpha virt. eigenvalues --    0.29213   0.29539   0.29825   0.30048   0.30320
 Alpha virt. eigenvalues --    0.30397   0.30998   0.31973   0.32020   0.33082
 Alpha virt. eigenvalues --    0.34088   0.34629   0.34817   0.35034   0.35630
 Alpha virt. eigenvalues --    0.36166   0.37443   0.37626   0.37897   0.38782
 Alpha virt. eigenvalues --    0.38950   0.39668   0.40401   0.40942   0.41488
 Alpha virt. eigenvalues --    0.42067   0.43969   0.44238   0.44726   0.45989
 Alpha virt. eigenvalues --    0.46385   0.47054   0.47372   0.47464   0.47728
 Alpha virt. eigenvalues --    0.47842   0.48270   0.48713   0.49069   0.49311
 Alpha virt. eigenvalues --    0.49580   0.49985   0.50160   0.50329   0.50751
 Alpha virt. eigenvalues --    0.50832   0.51038   0.51269   0.51672   0.52017
 Alpha virt. eigenvalues --    0.52238   0.52545   0.52725   0.52897   0.53170
 Alpha virt. eigenvalues --    0.53306   0.53450   0.53500   0.53661   0.53758
 Alpha virt. eigenvalues --    0.54162   0.54207   0.54340   0.54369   0.54412
 Alpha virt. eigenvalues --    0.54441   0.54901   0.55036   0.55129   0.55281
 Alpha virt. eigenvalues --    0.55544   0.55790   0.55972   0.56165   0.56317
 Alpha virt. eigenvalues --    0.56543   0.56596   0.56773   0.56905   0.57200
 Alpha virt. eigenvalues --    0.57336   0.57415   0.57490   0.57777   0.58098
 Alpha virt. eigenvalues --    0.58217   0.58494   0.58597   0.58724   0.58856
 Alpha virt. eigenvalues --    0.59107   0.59305   0.59416   0.59523   0.59763
 Alpha virt. eigenvalues --    0.59965   0.60152   0.60398   0.60870   0.61111
 Alpha virt. eigenvalues --    0.61408   0.61528   0.61708   0.61754   0.62595
 Alpha virt. eigenvalues --    0.62909   0.63376   0.63848   0.64301   0.64590
 Alpha virt. eigenvalues --    0.65322   0.65538   0.65673   0.66326   0.66367
 Alpha virt. eigenvalues --    0.66667   0.67248   0.67395   0.67936   0.68445
 Alpha virt. eigenvalues --    0.68830   0.70032   0.70400   0.70832   0.70897
 Alpha virt. eigenvalues --    0.71826   0.71881   0.72173   0.72251   0.72628
 Alpha virt. eigenvalues --    0.73038   0.73370   0.73585   0.73850   0.74590
 Alpha virt. eigenvalues --    0.74946   0.75220   0.75242   0.75462   0.75729
 Alpha virt. eigenvalues --    0.76084   0.76177   0.76511   0.76661   0.76755
 Alpha virt. eigenvalues --    0.77052   0.77310   0.77594   0.77867   0.78214
 Alpha virt. eigenvalues --    0.78455   0.79114   0.79540   0.80002   0.80163
 Alpha virt. eigenvalues --    0.81446   0.81535   0.82042   0.82489   0.83639
 Alpha virt. eigenvalues --    0.83905   0.84189   0.85626   0.86472   0.86906
 Alpha virt. eigenvalues --    0.87317   0.88229   0.88304   0.89360   0.89394
 Alpha virt. eigenvalues --    0.89792   0.89949   0.90657   0.92114   0.92545
 Alpha virt. eigenvalues --    0.92678   0.93003   0.93068   0.93136   0.93209
 Alpha virt. eigenvalues --    0.94089   0.94307   0.94855   0.95255   0.96040
 Alpha virt. eigenvalues --    0.96465   0.96706   0.96801   0.97203   0.97395
 Alpha virt. eigenvalues --    0.97993   0.98107   0.98522   0.98573   0.98727
 Alpha virt. eigenvalues --    0.99382   0.99411   0.99469   0.99614   0.99700
 Alpha virt. eigenvalues --    1.00077   1.00306   1.00535   1.00799   1.01421
 Alpha virt. eigenvalues --    1.01558   1.01853   1.01981   1.02146   1.02645
 Alpha virt. eigenvalues --    1.02720   1.02792   1.02951   1.03272   1.03675
 Alpha virt. eigenvalues --    1.03970   1.04118   1.04669   1.05387   1.05468
 Alpha virt. eigenvalues --    1.05610   1.06024   1.06070   1.06277   1.06494
 Alpha virt. eigenvalues --    1.07468   1.07597   1.07712   1.07941   1.08691
 Alpha virt. eigenvalues --    1.09024   1.09224   1.09295   1.09436   1.09692
 Alpha virt. eigenvalues --    1.10650   1.10987   1.11651   1.12015   1.12523
 Alpha virt. eigenvalues --    1.12825   1.13075   1.13400   1.13490   1.13721
 Alpha virt. eigenvalues --    1.13966   1.15247   1.15356   1.15587   1.15933
 Alpha virt. eigenvalues --    1.16335   1.16588   1.16886   1.17067   1.18221
 Alpha virt. eigenvalues --    1.18768   1.19254   1.19873   1.20581   1.21809
 Alpha virt. eigenvalues --    1.22059   1.22860   1.25700   1.26347   1.26445
 Alpha virt. eigenvalues --    1.27991   1.29275   1.31355   1.32020   1.32140
 Alpha virt. eigenvalues --    1.33305   1.33741   1.34241   1.35279   1.35562
 Alpha virt. eigenvalues --    1.37530   1.38904   1.39623   1.39845   1.40060
 Alpha virt. eigenvalues --    1.40468   1.40484   1.40753   1.40829   1.41104
 Alpha virt. eigenvalues --    1.41360   1.41556   1.42219   1.42561   1.42821
 Alpha virt. eigenvalues --    1.42897   1.43092   1.43656   1.44431   1.44683
 Alpha virt. eigenvalues --    1.45062   1.45321   1.46208   1.46843   1.47007
 Alpha virt. eigenvalues --    1.47230   1.48092   1.48697   1.49623   1.49860
 Alpha virt. eigenvalues --    1.50314   1.50700   1.51210   1.51742   1.52562
 Alpha virt. eigenvalues --    1.53068   1.53157   1.53620   1.54052   1.54356
 Alpha virt. eigenvalues --    1.54646   1.54907   1.55019   1.55251   1.56028
 Alpha virt. eigenvalues --    1.56368   1.56725   1.56873   1.57327   1.57453
 Alpha virt. eigenvalues --    1.57506   1.58132   1.59152   1.59453   1.59687
 Alpha virt. eigenvalues --    1.60098   1.60457   1.60920   1.61409   1.61920
 Alpha virt. eigenvalues --    1.62667   1.62940   1.63198   1.63791   1.64037
 Alpha virt. eigenvalues --    1.64596   1.65251   1.65496   1.66148   1.66368
 Alpha virt. eigenvalues --    1.67034   1.67236   1.67377   1.67439   1.67773
 Alpha virt. eigenvalues --    1.67863   1.68048   1.68201   1.68403   1.68731
 Alpha virt. eigenvalues --    1.68907   1.69127   1.69934   1.70094   1.70233
 Alpha virt. eigenvalues --    1.70646   1.70690   1.70821   1.71020   1.71159
 Alpha virt. eigenvalues --    1.71277   1.71894   1.72542   1.72893   1.73545
 Alpha virt. eigenvalues --    1.73634   1.73735   1.74041   1.74364   1.74593
 Alpha virt. eigenvalues --    1.75080   1.75150   1.75339   1.75408   1.75664
 Alpha virt. eigenvalues --    1.75823   1.76413   1.76858   1.76936   1.77737
 Alpha virt. eigenvalues --    1.77877   1.77985   1.78255   1.78939   1.79244
 Alpha virt. eigenvalues --    1.80217   1.80435   1.81192   1.81463   1.81758
 Alpha virt. eigenvalues --    1.82280   1.82729   1.82834   1.83190   1.83705
 Alpha virt. eigenvalues --    1.83996   1.84341   1.84668   1.85030   1.85879
 Alpha virt. eigenvalues --    1.86322   1.86781   1.86799   1.87356   1.87751
 Alpha virt. eigenvalues --    1.87927   1.88096   1.88324   1.89033   1.89307
 Alpha virt. eigenvalues --    1.89629   1.90004   1.90287   1.90377   1.90502
 Alpha virt. eigenvalues --    1.91058   1.91089   1.91198   1.91407   1.91554
 Alpha virt. eigenvalues --    1.92522   1.92909   1.93093   1.93276   1.93418
 Alpha virt. eigenvalues --    1.94218   1.94516   1.94893   1.95081   1.95637
 Alpha virt. eigenvalues --    1.95815   1.96143   1.96270   1.96679   1.96843
 Alpha virt. eigenvalues --    1.97345   1.97833   1.98138   1.98346   1.98956
 Alpha virt. eigenvalues --    1.99726   1.99903   2.00428   2.00623   2.01665
 Alpha virt. eigenvalues --    2.02084   2.02134   2.02458   2.03122   2.03610
 Alpha virt. eigenvalues --    2.04354   2.04816   2.05165   2.05545   2.06353
 Alpha virt. eigenvalues --    2.07628   2.07767   2.08117   2.08414   2.08949
 Alpha virt. eigenvalues --    2.09319   2.09607   2.10502   2.11264   2.11626
 Alpha virt. eigenvalues --    2.12051   2.12123   2.12812   2.14195   2.14786
 Alpha virt. eigenvalues --    2.15521   2.16473   2.16732   2.17015   2.18449
 Alpha virt. eigenvalues --    2.19080   2.20099   2.20412   2.20938   2.22309
 Alpha virt. eigenvalues --    2.23198   2.23509   2.23862   2.24316   2.25070
 Alpha virt. eigenvalues --    2.25382   2.26036   2.26505   2.26587   2.26633
 Alpha virt. eigenvalues --    2.26815   2.27092   2.27730   2.28790   2.29840
 Alpha virt. eigenvalues --    2.30817   2.32888   2.33756   2.34134   2.36799
 Alpha virt. eigenvalues --    2.38643   2.38833   2.39119   2.39444   2.39549
 Alpha virt. eigenvalues --    2.39734   2.39927   2.40323   2.40484   2.40828
 Alpha virt. eigenvalues --    2.41418   2.41535   2.41712   2.42518   2.43489
 Alpha virt. eigenvalues --    2.44196   2.44535   2.47558   2.48590   2.48876
 Alpha virt. eigenvalues --    2.50384   2.50806   2.50836   2.51339   2.51480
 Alpha virt. eigenvalues --    2.52822   2.53801   2.54598   2.55023   2.55088
 Alpha virt. eigenvalues --    2.56096   2.57229   2.57593   2.58190   2.58723
 Alpha virt. eigenvalues --    2.59335   2.60242   2.60255   2.63081   2.63788
 Alpha virt. eigenvalues --    2.67731   2.68508   2.69493   2.70218   2.70605
 Alpha virt. eigenvalues --    2.71539   2.72139   2.72577   2.73201   2.75155
 Alpha virt. eigenvalues --    2.75565   2.77501   2.77875   2.78664   2.78921
 Alpha virt. eigenvalues --    2.81055   2.81416   2.82101   2.82698   2.83029
 Alpha virt. eigenvalues --    2.83366   2.84898   2.90461   2.92908   2.95324
 Alpha virt. eigenvalues --    2.95702   2.97890   2.98019   2.99001   2.99145
 Alpha virt. eigenvalues --    3.00044   3.02828   3.04093   3.06737   3.07765
 Alpha virt. eigenvalues --    3.08075   3.15168   3.15676   3.18400   3.20381
 Alpha virt. eigenvalues --    3.22760   3.26261   3.32544   3.32671   3.38022
 Alpha virt. eigenvalues --    3.38798   3.41694   3.45459   3.46742   3.54415
 Alpha virt. eigenvalues --    3.54985   3.58166   3.58295   3.61871   3.63262
 Alpha virt. eigenvalues --    3.64002   3.75956   3.85320
          Condensed to atoms (all electrons):
 Mulliken charges:
               1
     1  C   -0.030041
     2  C   -0.026662
     3  C    0.065930
     4  C    0.051597
     5  C    0.048410
     6  C    0.071144
     7  C    0.050192
     8  C    0.051401
     9  C    0.048947
    10  C    0.058580
    11  C    0.069725
    12  C   -0.037977
    13  C    0.010443
    14  C    0.052385
[...]
 Alpha  occ. eigenvalues --   -0.64808  -0.63632  -0.63071  -0.62663  -0.61877
 Alpha  occ. eigenvalues --   -0.61804  -0.60456  -0.59836  -0.59112  -0.58596
 Alpha  occ. eigenvalues --   -0.57115  -0.56605  -0.56437  -0.56203  -0.54800
 Alpha  occ. eigenvalues --   -0.54470  -0.53873  -0.53201  -0.52533  -0.52233
 Alpha  occ. eigenvalues --   -0.51954  -0.51532  -0.51201  -0.50846  -0.50794
 Alpha  occ. eigenvalues --   -0.50289  -0.50185  -0.49729  -0.49517  -0.49307
 Alpha  occ. eigenvalues --   -0.49084  -0.48922  -0.48699  -0.48641  -0.48500
 Alpha  occ. eigenvalues --   -0.48374  -0.47820  -0.47699  -0.46678  -0.46406
 Alpha  occ. eigenvalues --   -0.45203  -0.44977  -0.44787  -0.44548  -0.44094
 Alpha  occ. eigenvalues --   -0.44073  -0.44019  -0.43945  -0.43108  -0.42347
 Alpha  occ. eigenvalues --   -0.42094  -0.41825  -0.40891  -0.40566  -0.40471
 Alpha  occ. eigenvalues --   -0.40170  -0.39078  -0.38361  -0.38011  -0.37558
 Alpha  occ. eigenvalues --   -0.37497  -0.37180  -0.35814  -0.35403  -0.32514
 Alpha  occ. eigenvalues --   -0.31577  -0.30971  -0.30898  -0.30716  -0.30684
 Alpha  occ. eigenvalues --   -0.30338  -0.28234  -0.26230  -0.24304  -0.24282
 Alpha  occ. eigenvalues --   -0.21941
 Alpha virt. eigenvalues --   -0.04707  -0.03134  -0.02318  -0.01874   0.01334
 Alpha virt. eigenvalues --    0.01715   0.02187   0.02773   0.03306   0.03610
 Alpha virt. eigenvalues --    0.04930   0.07541   0.08008   0.08299   0.09822
 Alpha virt. eigenvalues --    0.10075   0.10351   0.10651   0.11299   0.11846
 Alpha virt. eigenvalues --    0.11918   0.12406   0.12681   0.13434   0.13549
 Alpha virt. eigenvalues --    0.13819   0.14728   0.15459   0.15724   0.16826
 Alpha virt. eigenvalues --    0.17053   0.17260   0.18024   0.19308   0.20492
 Alpha virt. eigenvalues --    0.21757   0.22093   0.22348   0.22449   0.22785
 Alpha virt. eigenvalues --    0.23748   0.23972   0.25226   0.25946   0.25979
 Alpha virt. eigenvalues --    0.26498   0.26595   0.26838   0.27920   0.28007
 Alpha virt. eigenvalues --    0.28514   0.29020   0.29085   0.29183   0.29377
 Alpha virt. eigenvalues --    0.29467   0.29939   0.29989   0.30264   0.30348
 Alpha virt. eigenvalues --    0.30510   0.31125   0.31340   0.32829   0.33128
 Alpha virt. eigenvalues --    0.34159   0.35018   0.35060   0.35612   0.35968
 Alpha virt. eigenvalues --    0.36796   0.37473   0.37920   0.38232   0.38786
 Alpha virt. eigenvalues --    0.39517   0.40036   0.40363   0.41357   0.42102
 Alpha virt. eigenvalues --    0.42372   0.43773   0.44224   0.44810   0.45427
 Alpha virt. eigenvalues --    0.46044   0.46918   0.47570   0.47697   0.47906
 Alpha virt. eigenvalues --    0.48773   0.48881   0.49139   0.49690   0.49974
 Alpha virt. eigenvalues --    0.50026   0.50128   0.50488   0.51025   0.51115
 Alpha virt. eigenvalues --    0.51348   0.51519   0.51658   0.51923   0.52430
 Alpha virt. eigenvalues --    0.52732   0.52886   0.53148   0.53417   0.53503
 Alpha virt. eigenvalues --    0.53673   0.53827   0.53882   0.54167   0.54228
 Alpha virt. eigenvalues --    0.54512   0.54828   0.54896   0.54905   0.55153
 Alpha virt. eigenvalues --    0.55219   0.55226   0.55492   0.55506   0.55767
 Alpha virt. eigenvalues --    0.55916   0.56086   0.56219   0.56318   0.56517
 Alpha virt. eigenvalues --    0.56866   0.56988   0.57199   0.57375   0.57537
 Alpha virt. eigenvalues --    0.57638   0.57861   0.58013   0.58056   0.58243
 Alpha virt. eigenvalues --    0.58568   0.59068   0.59097   0.59178   0.59373
 Alpha virt. eigenvalues --    0.59485   0.59707   0.59808   0.59833   0.60217
 Alpha virt. eigenvalues --    0.60336   0.60639   0.60665   0.61228   0.61680
 Alpha virt. eigenvalues --    0.62020   0.62221   0.62354   0.62478   0.63029
 Alpha virt. eigenvalues --    0.63407   0.63604   0.63806   0.64252   0.64822
 Alpha virt. eigenvalues --    0.65377   0.66280   0.66861   0.66911   0.67018
 Alpha virt. eigenvalues --    0.67094   0.67348   0.67884   0.68073   0.70020
 Alpha virt. eigenvalues --    0.70503   0.70957   0.71150   0.71373   0.71640
 Alpha virt. eigenvalues --    0.71898   0.72254   0.72410   0.72589   0.72941
 Alpha virt. eigenvalues --    0.73312   0.73640   0.74233   0.74563   0.75027
 Alpha virt. eigenvalues --    0.75235   0.75520   0.75698   0.76087   0.76099
 Alpha virt. eigenvalues --    0.76370   0.76460   0.76687   0.76840   0.77002
 Alpha virt. eigenvalues --    0.77035   0.77295   0.77717   0.78100   0.78268
 Alpha virt. eigenvalues --    0.79241   0.79820   0.80112   0.80462   0.81425
 Alpha virt. eigenvalues --    0.81648   0.82354   0.82633   0.84145   0.84648
 Alpha virt. eigenvalues --    0.84872   0.84960   0.87159   0.87638   0.88004
 Alpha virt. eigenvalues --    0.88370   0.89108   0.89702   0.90182   0.90304
 Alpha virt. eigenvalues --    0.91139   0.91187   0.91296   0.92759   0.93052
 Alpha virt. eigenvalues --    0.93266   0.93469   0.93600   0.93672   0.94005
 Alpha virt. eigenvalues --    0.94854   0.95089   0.95439   0.95621   0.95805
 Alpha virt. eigenvalues --    0.96530   0.96839   0.97313   0.97473   0.97854
 Alpha virt. eigenvalues --    0.98299   0.98452   0.98996   0.99198   0.99365
 Alpha virt. eigenvalues --    0.99767   0.99962   1.00008   1.00099   1.00254
 Alpha virt. eigenvalues --    1.00286   1.00629   1.00892   1.01121   1.01375
 Alpha virt. eigenvalues --    1.01820   1.02133   1.02177   1.02456   1.02634
 Alpha virt. eigenvalues --    1.03222   1.03281   1.03398   1.03698   1.03906
 Alpha virt. eigenvalues --    1.04333   1.04696   1.05053   1.05479   1.05632
 Alpha virt. eigenvalues --    1.05948   1.06236   1.06531   1.06685   1.07383
 Alpha virt. eigenvalues --    1.07764   1.07827   1.08000   1.08759   1.08996
 Alpha virt. eigenvalues --    1.09205   1.09398   1.09513   1.09689   1.09954
 Alpha virt. eigenvalues --    1.10229   1.11392   1.11690   1.12048   1.12473
 Alpha virt. eigenvalues --    1.13206   1.13451   1.13778   1.13865   1.14121
 Alpha virt. eigenvalues --    1.14253   1.14521   1.15038   1.15679   1.16167
 Alpha virt. eigenvalues --    1.16570   1.16597   1.17126   1.17472   1.17837
 Alpha virt. eigenvalues --    1.18899   1.19592   1.19883   1.21197   1.22454
 Alpha virt. eigenvalues --    1.23220   1.24723   1.26111   1.26912   1.28377
 Alpha virt. eigenvalues --    1.29104   1.30904   1.31428   1.32172   1.32672
 Alpha virt. eigenvalues --    1.33364   1.34484   1.35083   1.35411   1.38062
 Alpha virt. eigenvalues --    1.39234   1.39610   1.40440   1.40683   1.40990
 Alpha virt. eigenvalues --    1.41064   1.41140   1.41211   1.41645   1.41786
 Alpha virt. eigenvalues --    1.41952   1.42012   1.43314   1.43339   1.43499
 Alpha virt. eigenvalues --    1.43597   1.43897   1.44730   1.45026   1.45393
 Alpha virt. eigenvalues --    1.45807   1.46310   1.46882   1.47422   1.47523
 Alpha virt. eigenvalues --    1.47889   1.48258   1.49578   1.50240   1.50660
 Alpha virt. eigenvalues --    1.50823   1.51275   1.51737   1.52591   1.53014
 Alpha virt. eigenvalues --    1.53271   1.53847   1.53931   1.54290   1.54396
 Alpha virt. eigenvalues --    1.55044   1.55185   1.55298   1.55627   1.56564
 Alpha virt. eigenvalues --    1.56644   1.57025   1.57644   1.57717   1.57918
 Alpha virt. eigenvalues --    1.57934   1.58474   1.58622   1.59598   1.59756
 Alpha virt. eigenvalues --    1.60151   1.60636   1.60810   1.61640   1.61820
 Alpha virt. eigenvalues --    1.63112   1.63313   1.63419   1.64005   1.64787
 Alpha virt. eigenvalues --    1.65212   1.65323   1.66182   1.66714   1.66933
 Alpha virt. eigenvalues --    1.67015   1.67642   1.67826   1.68025   1.68071
 Alpha virt. eigenvalues --    1.68146   1.68393   1.68619   1.68778   1.69000
 Alpha virt. eigenvalues --    1.69274   1.69596   1.69985   1.70258   1.70521
 Alpha virt. eigenvalues --    1.70647   1.71082   1.71282   1.71525   1.71718
 Alpha virt. eigenvalues --    1.72271   1.72605   1.72817   1.73051   1.73104
 Alpha virt. eigenvalues --    1.73646   1.74102   1.74121   1.74633   1.74740
 Alpha virt. eigenvalues --    1.74912   1.75180   1.75404   1.75757   1.75865
 Alpha virt. eigenvalues --    1.76031   1.76428   1.76442   1.77321   1.77659
 Alpha virt. eigenvalues --    1.78058   1.78301   1.78693   1.79172   1.79503
 Alpha virt. eigenvalues --    1.79775   1.80183   1.80995   1.81530   1.81891
 Alpha virt. eigenvalues --    1.82026   1.82446   1.82717   1.83056   1.83397
 Alpha virt. eigenvalues --    1.83695   1.84129   1.84457   1.84753   1.85557
 Alpha virt. eigenvalues --    1.86462   1.86700   1.87015   1.87205   1.88023
 Alpha virt. eigenvalues --    1.88265   1.88340   1.88583   1.89180   1.89626
 Alpha virt. eigenvalues --    1.89759   1.90069   1.90212   1.90639   1.90935
 Alpha virt. eigenvalues --    1.91120   1.91298   1.91442   1.91695   1.91962
 Alpha virt. eigenvalues --    1.92720   1.93340   1.93536   1.93706   1.93935
 Alpha virt. eigenvalues --    1.94040   1.94884   1.95315   1.95337   1.95896
 Alpha virt. eigenvalues --    1.96110   1.96257   1.96708   1.96883   1.96917
 Alpha virt. eigenvalues --    1.97210   1.97962   1.98250   1.98570   1.99102
 Alpha virt. eigenvalues --    1.99792   2.00324   2.00935   2.01256   2.01386
 Alpha virt. eigenvalues --    2.01941   2.02222   2.02466   2.03062   2.04183
 Alpha virt. eigenvalues --    2.04774   2.05171   2.05616   2.06652   2.06840
 Alpha virt. eigenvalues --    2.07352   2.08026   2.08217   2.08795   2.09433
 Alpha virt. eigenvalues --    2.09569   2.09655   2.10266   2.11948   2.12237
 Alpha virt. eigenvalues --    2.12556   2.13016   2.13873   2.14248   2.14728
 Alpha virt. eigenvalues --    2.16292   2.16515   2.17132   2.17267   2.18151
 Alpha virt. eigenvalues --    2.19388   2.19587   2.21135   2.21482   2.22736
 Alpha virt. eigenvalues --    2.22875   2.23962   2.24132   2.24401   2.24812
 Alpha virt. eigenvalues --    2.25629   2.26127   2.26617   2.26756   2.26927
 Alpha virt. eigenvalues --    2.27013   2.27425   2.28022   2.29505   2.30357
 Alpha virt. eigenvalues --    2.31918   2.33074   2.34312   2.34435   2.35455
 Alpha virt. eigenvalues --    2.35732   2.37103   2.39012   2.39506   2.39792
 Alpha virt. eigenvalues --    2.39931   2.40270   2.40573   2.40778   2.41045
 Alpha virt. eigenvalues --    2.41174   2.42009   2.42113   2.42872   2.43109
 Alpha virt. eigenvalues --    2.43854   2.44677   2.44759   2.47780   2.48855
 Alpha virt. eigenvalues --    2.49862   2.50339   2.51020   2.51209   2.51563
 Alpha virt. eigenvalues --    2.51678   2.54309   2.54975   2.55192   2.55663
 Alpha virt. eigenvalues --    2.56444   2.56757   2.58047   2.58256   2.58988
 Alpha virt. eigenvalues --    2.60115   2.60804   2.63213   2.63993   2.64648
 Alpha virt. eigenvalues --    2.66829   2.68962   2.70082   2.70820   2.71459
 Alpha virt. eigenvalues --    2.72305   2.72732   2.73078   2.75565   2.76376
 Alpha virt. eigenvalues --    2.77481   2.78004   2.78711   2.79785   2.81213
 Alpha virt. eigenvalues --    2.81865   2.82198   2.82870   2.83213   2.83690
 Alpha virt. eigenvalues --    2.84902   2.88901   2.90609   2.94817   2.95679
 Alpha virt. eigenvalues --    2.96999   2.98256   2.99065   2.99419   2.99531
 Alpha virt. eigenvalues --    3.02191   3.06595   3.07211   3.08002   3.10415
 Alpha virt. eigenvalues --    3.14882   3.16462   3.17377   3.20344   3.23189
 Alpha virt. eigenvalues --    3.26684   3.33131   3.33363   3.36225   3.38740
 Alpha virt. eigenvalues --    3.41976   3.45535   3.47058   3.51184   3.55315
 Alpha virt. eigenvalues --    3.55413   3.58572   3.58689   3.62275   3.64267
 Alpha virt. eigenvalues --    3.65765   3.76594   3.85002
          Condensed to atoms (all electrons):
 Mulliken charges:
               1
     1  C   -0.022978
     2  C   -0.018633
     3  C    0.072289
     4  C    0.064664
     5  C    0.048544
     6  C    0.082109
     7  C    0.054904
     8  C    0.063427
     9  C    0.051563
    10  C    0.079419
    11  C    0.079252
    12  C   -0.038671
    13  C    0.036905
    14  C    0.058650
    15  C    0.005078
    16  C   -0.037878
    17  C   -0.022854
    18  C   -0.018750
    19  C    0.072813
    20  C   -0.018734
    21  C   -0.020117
    22  C    0.077169
    23  C   -0.020327
    24  C   -0.018926
    25  C   -0.034822
    26  C    0.048316
    27  C   -0.011353
    28  C   -0.040711
    29  C    0.105351
    30  C   -0.038855
    31  C   -0.043161
    32  C    0.105102
    33  C   -0.043251
    34  C   -0.043165
    35  C    0.105003
    36  C   -0.043568
    37  C   -0.043487
    38  C    0.105013
    39  C   -0.043265
    40  C   -0.040941
    41  C    0.104042
    42  C   -0.042033
    43  N   -0.132434
    44  N   -0.133310
    45  C    0.017953
    46  C    0.028636
    47  C    0.046572
    48  C    0.040557
    49  C    0.008759
    50  C    0.070611
    51  O   -0.164447
    52  H   -0.047030
    53  H   -0.019378
    54  H    0.000898
    55  H   -0.012252
    56  H    0.152322
    57  H   -0.015672
    58  H   -0.019937
    59  H   -0.030443
    60  H   -0.029492
    61  H   -0.038777
    62  H   -0.038988
    63  H   -0.031272
    64  H   -0.039161
    65  H   -0.039205
    66  H   -0.031311
    67  H   -0.038706
    68  H   -0.039056
    69  H   -0.031396
    70  H   -0.039036
    71  H   -0.038676
    72  H   -0.030472
    73  H   -0.038989
 Sum of Mulliken charges =   0.00000
 Mulliken charges with hydrogens summed into heavy atoms:
               1
     1  C   -0.022978
     2  C   -0.018633
     3  C    0.072289
     4  C    0.064664
     5  C    0.048544
     6  C    0.082109
     7  C    0.054904
     8  C    0.063427
     9  C    0.051563
    10  C    0.079419
    11  C    0.079252
    12  C   -0.038671
    13  C    0.036905
    14  C    0.058650
    15  C    0.005078
    16  C   -0.037878
    17  C   -0.022854
    18  C   -0.018750
    19  C    0.072813
    20  C   -0.018734
    21  C   -0.020117
    22  C    0.077169
    23  C   -0.020327
    24  C   -0.018926
    25  C   -0.054200
    26  C    0.048316
    27  C   -0.058383
    28  C   -0.079488
    29  C    0.075859
    30  C   -0.069298
    31  C   -0.082322
    32  C    0.073830
    33  C   -0.082239
    34  C   -0.081871
    35  C    0.073691
    36  C   -0.082773
    37  C   -0.082523
    38  C    0.073617
    39  C   -0.082321
    40  C   -0.079929
    41  C    0.073569
    42  C   -0.080709
    43  N   -0.132434
    44  N   -0.133310
    45  C    0.017953
    46  C    0.029534
    47  C    0.034321
    48  C    0.040557
    49  C   -0.011178
    50  C    0.054939
    51  O   -0.012125
 Electronic spatial extent (au):  <R**2>=          47264.5834
 Charge=              0.0000 electrons
 Dipole moment (field-independent basis, Debye):
    X=             -2.3023    Y=              0.0050    Z=              0.6571  Tot=              2.3942
 Quadrupole moment (field-independent basis, Debye-Ang):
   XX=           -253.0519   YY=           -298.2873   ZZ=           -239.3577
   XY=              4.2518   XZ=             29.7394   YZ=              3.2251
 Traceless Quadrupole moment (field-independent basis, Debye-Ang):
   XX=             10.5137   YY=            -34.7216   ZZ=             24.2079
   XY=              4.2518   XZ=             29.7394   YZ=              3.2251
 Octapole moment (field-independent basis, Debye-Ang**2):
  XXX=          -2306.5002  YYY=             -1.1886  ZZZ=            179.6005  XYY=           -942.2877
  XXY=             12.9040  XXZ=            192.8380  XZZ=          -1036.7253  YZZ=            -36.8456
  YYZ=             94.9300  XYZ=             -4.8234
 Hexadecapole moment (field-independent basis, Debye-Ang**3):
 XXXX=         -29593.2360 YYYY=           -593.4710 ZZZZ=         -26351.6399 XXXY=            255.5481
 XXXZ=          -2092.2658 YYYX=             69.6516 YYYZ=            523.2939 ZZZX=             40.2349
 ZZZY=            904.5906 XXYY=          -6192.0880 XXZZ=         -10234.3303 YYZZ=          -5727.2686
 XXYZ=            218.4897 YYXZ=          -1064.8557 ZZXY=            134.7701
 N-N= 5.791186105561D+03 E-N=-1.628644175986D+04  KE= 2.014276431702D+03
 1\1\GINC-BOOTES\SP\RCAM-B3LYP TD-FC\CC-pVDZ\C48H22N2O1\TBERGS\09-May-2
 017\0\\#CAM-B3LYP/cc-pVDZ nosymm TD(NStates=2, triplets, root=1) guess
 =read geom=(allcheck,modredundant)\\Azo0 deg\\0,1\C,0,0.0199363341,-0.
 2835247398,0.6680212237\C,0,0.1178044556,-0.2725285708,2.1289584311\C,
 0,1.3920763989,-0.197580723,2.7466633914\C,0,2.5956763797,-0.146377547
 4,1.9382458819\C,0,2.5010457037,-0.1730600229,0.5248752736\C,0,1.20141
 5718,-0.2396302057,-0.1152671079\C,0,3.8658655163,-0.0722084522,2.5631
 124707\C,0,5.0422125491,-0.0308874557,1.7720883742\C,0,4.9485156785,-0
 .0643797733,0.3593453277\C,0,3.6770344363,-0.1311471661,-0.26712164\C,
 0,6.1528080015,-0.0357051397,-0.4495719716\C,0,6.069089019,-0.07870979
 08,-1.8643849522\C,0,4.7544562563,-0.1342330735,-2.5119633524\C,0,3.58
 04401673,-0.1593505113,-1.7085598163\C,0,2.3141708702,-0.2211305419,-2
 .3470909601\C,0,1.0973667777,-0.255833473,-1.5295997346\C,0,7.42756835
 43,0.0303356344,0.167768047\C,0,7.5238206344,0.0853597196,1.6276764504
 \C,0,6.3424601673,0.0484848054,2.4111462549\C,0,6.443964921,0.09303374
 32,3.824972289\C,0,5.2291738077,0.045172212,4.6412404005\C,0,3.9621607
 582,-0.0386613155,4.0095063065\C,0,2.7902791427,-0.0887204559,4.806640
 9943\C,0,1.4785873284,-0.1758798182,4.1619032868\C,0,2.2319456517,-0.2
 589258159,-3.7377728358\C,0,3.3936657698,-0.197755683,-4.5243185338\C,
 0,4.6462299395,-0.1539906096,-3.8961118199\C,0,8.576324486,0.040621919
 ,-0.6312618657\C,0,8.4865965308,-0.0087085861,-2.0120899414\C,0,7.2439
 546838,-0.0657274421,-2.6220150666\C,0,2.9076052739,-0.0523975123,6.20
 01781426\C,0,4.1481369394,0.0307223881,6.810471319\C,0,5.296964077,0.0
 786829811,6.0380779741\C,0,8.7660284289,0.174638173,2.26525822\C,0,8.8
 575343917,0.2229931448,3.6462877614\C,0,7.7080194307,0.1807054585,4.41
 78955008\C,0,-1.0283492755,-0.3340732122,2.9288161517\C,0,-0.936214025
 2,-0.3179188636,4.310678939\C,0,0.3047145603,-0.2376542992,4.920565039
 7\C,0,-1.2239563646,-0.3336518175,0.0298539165\C,0,-1.3182407661,-0.33
 99923968,-1.3517763795\C,0,-0.1683845493,-0.3011585391,-2.1229934301\N
 ,0,3.3618014054,-0.2368382286,-5.8935131714\N,0,2.5837486464,-0.072054
 0128,-6.8226816964\C,0,1.2803022007,0.246839584,-7.1351385739\C,0,0.49
 57907266,1.1036254732,-6.3324186181\C,0,-0.8055359431,1.4009741261,-6.
 7049251869\C,0,-1.3407568395,0.8910793447,-7.8918181305\C,0,-0.5517229
 275,0.0773662695,-8.7115995171\C,0,0.7445349307,-0.2407279857,-8.34017
 84826\O,0,-2.6186947981,1.2255236398,-8.1974309635\H,0,5.521168855,-0.
 1271686438,-4.5392204768\H,0,1.2737005498,-0.3533378231,-4.2355920856\
 H,0,0.913494815,1.5411744509,-5.4267107494\H,0,-1.4242208521,2.0517851
 168,-6.0856082367\H,0,-2.8687226594,0.8174988535,-9.0395922112\H,0,1.3
 613615151,-0.8799726037,-8.9719592097\H,0,-0.9609051324,-0.3149798601,
 -9.6453849154\H,0,7.2017742788,-0.1019319172,-3.7077015166\H,0,9.39268
 81725,-0.0020285279,-2.6189172659\H,0,9.5636034697,0.0847093477,-0.178
 6507774\H,0,6.2571303735,0.1427243675,6.5436403655\H,0,4.2204330741,0.
 0581536179,7.8983180073\H,0,2.0225876321,-0.088004666,6.8302652981\H,0
 ,7.8099717971,0.2185391055,5.4994147875\H,0,9.8343305951,0.2939644095,
 4.1261589443\H,0,9.6842052638,0.2102407355,1.6845743516\H,0,0.34722990
 12,-0.2253909078,6.0066701879\H,0,-1.8404696645,-0.3679260311,4.918334
 096\H,0,-2.0149534197,-0.397865824,2.4770692098\H,0,-0.2741363722,-0.3
 002555726,-3.2049046028\H,0,-2.2966292853,-0.3739173142,-1.8322358427\
 H,0,-2.1421728675,-0.3634461481,0.6108380222\\Version=ES64L-G09RevD.01
 \HF=-2026.1964551\RMSD=6.722e-09\PG=C01 [X(C48H22N2O1)]\\@


 The hours that make us happy make us wise.
                         -- John Masefield
 Job cpu time:       0 days  5 hours 13 minutes 13.1 seconds.
 File lengths (MBytes):  RWF=    835 Int=      0 D2E=      0 Chk=    160 Scr=      1
 Normal termination of Gaussian 09 at Tue May  9 18:55:10 2017.
