 Entering Gaussian System, Link 0=g09
 Input=Azo180excited.com
 Output=Azo180excited.log
 Initial command:
 /home/sknippen/PROGRAMS/GAUSSIAN/g09.d01/tar//g09/l1.exe "/scratch/tbergs/Gau-24448.inp" -scrdir="/scratch/tbergs/"
 Entering Link 1 = /home/sknippen/PROGRAMS/GAUSSIAN/g09.d01/tar//g09/l1.exe PID=     24450.
  
 Copyright (c) 1988,1990,1992,1993,1995,1998,2003,2009,2013,
            Gaussian, Inc.  All Rights Reserved.
  
 This is part of the Gaussian(R) 09 program.  It is based on
 the Gaussian(R) 03 system (copyright 2003, Gaussian, Inc.),
 the Gaussian(R) 98 system (copyright 1998, Gaussian, Inc.),
 the Gaussian(R) 94 system (copyright 1995, Gaussian, Inc.),
 the Gaussian 92(TM) system (copyright 1992, Gaussian, Inc.),
 the Gaussian 90(TM) system (copyright 1990, Gaussian, Inc.),
 the Gaussian 88(TM) system (copyright 1988, Gaussian, Inc.),
 the Gaussian 86(TM) system (copyright 1986, Carnegie Mellon
 University), and the Gaussian 82(TM) system (copyright 1983,
 Carnegie Mellon University). Gaussian is a federally registered
 trademark of Gaussian, Inc.
  
 This software contains proprietary and confidential information,
 including trade secrets, belonging to Gaussian, Inc.
  
 This software is provided under written license and may be
 used, copied, transmitted, or stored only in accord with that
 written license.
  
 The following legend is applicable only to US Government
 contracts under FAR:
  
                    RESTRICTED RIGHTS LEGEND
  
 Use, reproduction and disclosure by the US Government is
 subject to restrictions as set forth in subparagraphs (a)
 and (c) of the Commercial Computer Software - Restricted
 Rights clause in FAR 52.227-19.
  
 Gaussian, Inc.
 340 Quinnipiac St., Bldg. 40, Wallingford CT 06492
  
  
 ---------------------------------------------------------------
 Warning -- This program may not be used in any manner that
 competes with the business of Gaussian, Inc. or will provide
 assistance to any competitor of Gaussian, Inc.  The licensee
 of this program is prohibited from giving any competitor of
 Gaussian, Inc. access to this program.  By using this program,
 the user acknowledges that Gaussian, Inc. is engaged in the
 business of creating and licensing software in the field of
 computational chemistry and represents and warrants to the
 licensee that it is not a competitor of Gaussian, Inc. and that
 it will not use this program in any manner prohibited above.
 ---------------------------------------------------------------
  

 Cite this work as:
 Gaussian 09, Revision D.01,
 M. J. Frisch, G. W. Trucks, H. B. Schlegel, G. E. Scuseria, 
 M. A. Robb, J. R. Cheeseman, G. Scalmani, V. Barone, B. Mennucci, 
 G. A. Petersson, H. Nakatsuji, M. Caricato, X. Li, H. P. Hratchian, 
 A. F. Izmaylov, J. Bloino, G. Zheng, J. L. Sonnenberg, M. Hada, 
 M. Ehara, K. Toyota, R. Fukuda, J. Hasegawa, M. Ishida, T. Nakajima, 
 Y. Honda, O. Kitao, H. Nakai, T. Vreven, J. A. Montgomery, Jr., 
 J. E. Peralta, F. Ogliaro, M. Bearpark, J. J. Heyd, E. Brothers, 
 K. N. Kudin, V. N. Staroverov, T. Keith, R. Kobayashi, J. Normand, 
 K. Raghavachari, A. Rendell, J. C. Burant, S. S. Iyengar, J. Tomasi, 
 M. Cossi, N. Rega, J. M. Millam, M. Klene, J. E. Knox, J. B. Cross, 
 V. Bakken, C. Adamo, J. Jaramillo, R. Gomperts, R. E. Stratmann, 
 O. Yazyev, A. J. Austin, R. Cammi, C. Pomelli, J. W. Ochterski, 
 R. L. Martin, K. Morokuma, V. G. Zakrzewski, G. A. Voth, 
 P. Salvador, J. J. Dannenberg, S. Dapprich, A. D. Daniels, 
 O. Farkas, J. B. Foresman, J. V. Ortiz, J. Cioslowski, 
 and D. J. Fox, Gaussian, Inc., Wallingford CT, 2013.
 
 ******************************************
 Gaussian 09:  ES64L-G09RevD.01 24-Apr-2013
                13-May-2017 
 ******************************************
 %mem=50Gb
 %nprocs=20
 Will use up to   20 processors via shared memory.
 %chk=Azo180.chk
 ----------------------------------------------------------------------
 #CAM-B3LYP/cc-pVDZ opt(noeigentest,modredundant) nosymm SCRF=(Solvent=
 water) TD(NStates=3,root=1) guess=read geom=(allcheck,modredundant)
 ----------------------------------------------------------------------
 1/11=1,14=-1,18=120,19=15,26=3,29=7,38=1/1,3;
 2/9=110,12=2,15=1,40=1/2;
 3/5=16,11=9,14=-4,16=1,25=1,30=1,70=2201,71=1,72=1,74=-40,116=-2/1,2,8,3;
 4/5=1/1;
 5/5=2,38=6,53=1/2;
 8/6=1,10=1,107=1,108=3/1;
 9/8=1,15=2,41=3,42=1,70=2/14;
 10/5=4,31=1/2;
 6/7=2,8=2,9=2,10=2/1;
 7/12=6,13=5,14=1,30=1/1,2,3,16;
 1/11=1,14=-1,18=20,19=15,26=3/3(2);
 2/9=110,15=1/2;
 99//99;
 2/9=110,15=1/2;
 3/5=16,11=9,14=-2,16=1,25=1,30=1,70=2205,71=1,72=1,74=-40/1,2,8,3;
 4/5=5,16=3,69=1/1;
 5/5=2,38=5,53=1/2;
 8/6=1,10=1,107=1,108=3/1;
 9/8=1,15=2,41=3,42=1,49=4,70=2/14;
 10/5=4,31=1/2;
 7/12=6,13=5,14=1,30=1/1,2,3,16;
 1/11=1,14=-1,18=20,19=15,26=3/3(-8);
 2/9=110,15=1/2;
 6/7=2,8=2,9=2,10=2/1;
 99//99;
 Structure from the checkpoint file:  "Azo180.chk"
 ----------
 Azo180 deg
 ----------
 Charge =  0 Multiplicity = 1
 Redundant internal coordinates found in file.
 C,0,-0.0403428217,0.1599287092,0.0657926694
 C,0,-0.0166961812,0.1750954886,1.529544436
 C,0,1.224949227,0.1233032484,2.2124081528
 C,0,2.4680897515,0.0557050177,1.4675338961
 C,0,2.4449878663,0.0412806801,0.0511748391
 C,0,1.1785867233,0.0939446975,-0.6551677778
 C,0,3.7061769094,0.004125363,2.157106966
 C,0,4.9209895576,-0.0619198067,1.4299118059
 C,0,4.8982341507,-0.0763598993,0.012866039
 C,0,3.6602844974,-0.0247332174,-0.67611758
 C,0,6.1410192451,-0.1439852392,-0.7316661787
 C,0,6.126534562,-0.1588027105,-2.1491054133
 C,0,4.8478409331,-0.1051620947,-2.8577801561
 C,0,3.6375249002,-0.0393936488,-2.1242043182
 C,0,2.4021572286,0.01203442,-2.825050149
 C,0,1.1467402958,0.079928914,-2.0723960954
 C,0,7.3830744342,-0.1960151067,-0.0498193832
 C,0,7.4068707061,-0.1809177235,1.4139392309
 C,0,6.1876337655,-0.1147017492,2.1351715942
 C,0,6.2184176405,-0.1005464679,3.5525645136
 C,0,4.9636570359,-0.032389896,4.3039384975
 C,0,3.7295131644,0.0189433156,3.6073465188
 C,0,2.5183884731,0.0849070795,4.3422412646
 C,0,1.2400395129,0.1382415148,3.6301615451
 C,0,2.3986151436,-0.0026364889,-4.2178106556
 C,0,3.5904358841,-0.0671391764,-4.9315603504
 C,0,4.7984849746,-0.1176712216,-4.25321266
 C,0,8.5678764593,-0.2610843256,-0.7907355981
 C,0,8.5454390572,-0.2752720598,-2.1757939843
 C,0,7.3359811317,-0.2245593448,-2.8485542482
 C,0,2.565945731,0.0979275709,5.7402159381
 C,0,3.7749748517,0.0474929827,6.4141215508
 C,0,4.9615091365,-0.0169933084,5.7027638134
 C,0,8.6159147525,-0.2308267766,2.1156778484
 C,0,8.6386051729,-0.2165861203,3.5004572523
 C,0,7.4516553215,-0.1521174607,4.2112336847
 C,0,-1.2026508116,0.240100274,2.2688175046
 C,0,-1.1806352693,0.2544080748,3.6534714249
 C,0,0.0286853996,0.2039409185,4.3268557091
 C,0,-1.2493408465,0.2095885587,-0.6369568378
 C,0,-1.2722447182,0.1953851107,-2.0214977915
 C,0,-0.0848249025,0.1311831821,-2.7321576944
 N,0,3.6803461037,-0.0864292794,-6.3503402236
 N,0,2.5845638698,-0.0404902156,-6.944032385
 C,0,2.6565950775,-0.0588441454,-8.3548545397
 C,0,3.8493839909,-0.1235884962,-9.0916585006
 C,0,3.8136995583,-0.1364602259,-10.4727678663
 C,0,2.5835653133,-0.0848262977,-11.1458774081
 C,0,1.3918378804,-0.020275535,-10.4197254035
 C,0,1.4366103892,-0.0077505347,-9.0318497443
 O,0,2.6187740867,-0.1007680527,-12.4962946477
 H,0,5.6992195616,-0.1671504207,-4.859644167
 H,0,1.4768768869,0.0353088282,-4.78984406
 H,0,4.7982217871,-0.1632668127,-8.5584367113
 H,0,4.7300442517,-0.1864415004,-11.0621594884
 H,0,1.7165876604,-0.061085885,-12.8475390218
 H,0,0.5174857473,0.0422993975,-8.4464434169
 H,0,0.4341738633,0.0199083866,-10.943440275
 H,0,7.3454118785,-0.2369820374,-3.9355164424
 H,0,9.4797097101,-0.3263467594,-2.7359330836
 H,0,9.5313421835,-0.3018726454,-0.2891214203
 H,0,5.8955086925,-0.0555876084,6.2573161879
 H,0,3.7925572256,0.058559182,7.5045070162
 H,0,1.6506155036,0.1480625118,6.3242328492
 H,0,7.4993380728,-0.1423827406,5.2971189502
 H,0,9.5906337838,-0.2561115656,4.0309675493
 H,0,9.5622108111,-0.2818125688,1.5832661078
 H,0,0.0156760729,0.2166039369,5.4136465023
 H,0,-2.1150881856,0.3053937995,4.2134209489
 H,0,-2.1656642591,0.2807022265,1.7663676603
 H,0,-0.1293058424,0.1213166852,-3.8182132083
 H,0,-2.2241951137,0.2347050913,-2.5520699656
 H,0,-2.1957796071,0.2603630037,-0.1048186158
 Recover connectivity data from disk.
 The following ModRedundant input section has been read:
 D      26      43      44      45 F                                           
 

 GradGradGradGradGradGradGradGradGradGradGradGradGradGradGradGradGradGrad
 Berny optimization.
 Initialization pass.
                           ----------------------------
                           !    Initial Parameters    !
                           ! (Angstroms and Degrees)  !
 --------------------------                            --------------------------
 ! Name  Definition              Value          Derivative Info.                !
 --------------------------------------------------------------------------------
 ! R1    R(1,2)                  1.464          estimate D2E/DX2                !
 ! R2    R(1,6)                  1.4177         estimate D2E/DX2                !
 ! R3    R(1,40)                 1.3993         estimate D2E/DX2                !
 ! R4    R(2,3)                  1.418          estimate D2E/DX2                !
 ! R5    R(2,37)                 1.399          estimate D2E/DX2                !
 ! R6    R(3,4)                  1.4508         estimate D2E/DX2                !
 ! R7    R(3,24)                 1.4179         estimate D2E/DX2                !
 ! R8    R(4,5)                  1.4166         estimate D2E/DX2                !
 ! R9    R(4,7)                  1.4181         estimate D2E/DX2                !
 ! R10   R(5,6)                  1.451          estimate D2E/DX2                !
 ! R11   R(5,10)                 1.4178         estimate D2E/DX2                !
 ! R12   R(6,16)                 1.4177         estimate D2E/DX2                !
 ! R13   R(7,8)                  1.4174         estimate D2E/DX2                !
 ! R14   R(7,22)                 1.4505         estimate D2E/DX2                !
 ! R15   R(8,9)                  1.4173         estimate D2E/DX2                !
 ! R16   R(8,19)                 1.4507         estimate D2E/DX2                !
 ! R17   R(9,10)                 1.4177         estimate D2E/DX2                !
 ! R18   R(9,11)                 1.4503         estimate D2E/DX2                !
 ! R19   R(10,14)                1.4483         estimate D2E/DX2                !
 ! R20   R(11,12)                1.4176         estimate D2E/DX2                !
 ! R21   R(11,17)                1.4179         estimate D2E/DX2                !
 ! R22   R(12,13)                1.4629         estimate D2E/DX2                !
 ! R23   R(12,30)                1.3987         estimate D2E/DX2                !
 ! R24   R(13,14)                1.4168         estimate D2E/DX2                !
 ! R25   R(13,27)                1.3964         estimate D2E/DX2                !
 ! R26   R(14,15)                1.4213         estimate D2E/DX2                !
 ! R27   R(15,16)                1.4653         estimate D2E/DX2                !
 ! R28   R(15,25)                1.3928         estimate D2E/DX2                !
 ! R29   R(16,42)                1.3981         estimate D2E/DX2                !
 ! R30   R(17,18)                1.464          estimate D2E/DX2                !
 ! R31   R(17,28)                1.3989         estimate D2E/DX2                !
 ! R32   R(18,19)                1.4181         estimate D2E/DX2                !
 ! R33   R(18,34)                1.3988         estimate D2E/DX2                !
 ! R34   R(19,20)                1.4178         estimate D2E/DX2                !
 ! R35   R(20,21)                1.4641         estimate D2E/DX2                !
 ! R36   R(20,36)                1.3991         estimate D2E/DX2                !
 ! R37   R(21,22)                1.4181         estimate D2E/DX2                !
 ! R38   R(21,33)                1.3989         estimate D2E/DX2                !
 ! R39   R(22,23)                1.4182         estimate D2E/DX2                !
 ! R40   R(23,24)                1.4643         estimate D2E/DX2                !
 ! R41   R(23,31)                1.3988         estimate D2E/DX2                !
 ! R42   R(24,39)                1.399          estimate D2E/DX2                !
 ! R43   R(25,26)                1.3907         estimate D2E/DX2                !
 ! R44   R(25,53)                1.0855         estimate D2E/DX2                !
 ! R45   R(26,27)                1.3864         estimate D2E/DX2                !
 ! R46   R(26,43)                1.4218         estimate D2E/DX2                !
 ! R47   R(27,52)                1.087          estimate D2E/DX2                !
 ! R48   R(28,29)                1.3853         estimate D2E/DX2                !
 ! R49   R(28,61)                1.087          estimate D2E/DX2                !
 ! R50   R(29,30)                1.3849         estimate D2E/DX2                !
 ! R51   R(29,60)                1.0905         estimate D2E/DX2                !
 ! R52   R(30,59)                1.0871         estimate D2E/DX2                !
 ! R53   R(31,32)                1.3851         estimate D2E/DX2                !
 ! R54   R(31,64)                1.0869         estimate D2E/DX2                !
 ! R55   R(32,33)                1.3849         estimate D2E/DX2                !
 ! R56   R(32,63)                1.0906         estimate D2E/DX2                !
 ! R57   R(33,62)                1.0869         estimate D2E/DX2                !
 ! R58   R(34,35)                1.385          estimate D2E/DX2                !
 ! R59   R(34,67)                1.087          estimate D2E/DX2                !
 ! R60   R(35,36)                1.385          estimate D2E/DX2                !
 ! R61   R(35,66)                1.0906         estimate D2E/DX2                !
 ! R62   R(36,65)                1.087          estimate D2E/DX2                !
 ! R63   R(37,38)                1.3849         estimate D2E/DX2                !
 ! R64   R(37,70)                1.087          estimate D2E/DX2                !
 ! R65   R(38,39)                1.3851         estimate D2E/DX2                !
 ! R66   R(38,69)                1.0906         estimate D2E/DX2                !
 ! R67   R(39,68)                1.0869         estimate D2E/DX2                !
 ! R68   R(40,41)                1.3848         estimate D2E/DX2                !
 ! R69   R(40,73)                1.087          estimate D2E/DX2                !
 ! R70   R(41,42)                1.3853         estimate D2E/DX2                !
 ! R71   R(41,72)                1.0905         estimate D2E/DX2                !
 ! R72   R(42,71)                1.087          estimate D2E/DX2                !
 ! R73   R(43,44)                1.2471         estimate D2E/DX2                !
 ! R74   R(44,45)                1.4128         estimate D2E/DX2                !
 ! R75   R(45,46)                1.4035         estimate D2E/DX2                !
 ! R76   R(45,50)                1.3962         estimate D2E/DX2                !
 ! R77   R(46,47)                1.3816         estimate D2E/DX2                !
 ! R78   R(46,54)                1.0891         estimate D2E/DX2                !
 ! R79   R(47,48)                1.4032         estimate D2E/DX2                !
 ! R80   R(47,55)                1.0907         estimate D2E/DX2                !
 ! R81   R(48,49)                1.397          estimate D2E/DX2                !
 ! R82   R(48,51)                1.351          estimate D2E/DX2                !
 ! R83   R(49,50)                1.3887         estimate D2E/DX2                !
 ! R84   R(49,58)                1.0923         estimate D2E/DX2                !
 ! R85   R(50,57)                1.0909         estimate D2E/DX2                !
 ! R86   R(51,56)                0.969          estimate D2E/DX2                !
 ! A1    A(2,1,6)              119.6722         estimate D2E/DX2                !
 ! A2    A(2,1,40)             121.0453         estimate D2E/DX2                !
 ! A3    A(6,1,40)             119.2825         estimate D2E/DX2                !
 ! A4    A(1,2,3)              119.6863         estimate D2E/DX2                !
 ! A5    A(1,2,37)             121.0052         estimate D2E/DX2                !
 ! A6    A(3,2,37)             119.3084         estimate D2E/DX2                !
 ! A7    A(2,3,4)              120.3155         estimate D2E/DX2                !
 ! A8    A(2,3,24)             119.3705         estimate D2E/DX2                !
 ! A9    A(4,3,24)             120.314          estimate D2E/DX2                !
 ! A10   A(3,4,5)              119.9888         estimate D2E/DX2                !
 ! A11   A(3,4,7)              120.0085         estimate D2E/DX2                !
 ! A12   A(5,4,7)              120.0026         estimate D2E/DX2                !
 ! A13   A(4,5,6)              120.0373         estimate D2E/DX2                !
 ! A14   A(4,5,10)             119.9577         estimate D2E/DX2                !
 ! A15   A(6,5,10)             120.005          estimate D2E/DX2                !
 ! A16   A(1,6,5)              120.3            estimate D2E/DX2                !
 ! A17   A(1,6,16)             119.3096         estimate D2E/DX2                !
 ! A18   A(5,6,16)             120.3905         estimate D2E/DX2                !
 ! A19   A(4,7,8)              120.033          estimate D2E/DX2                !
 ! A20   A(4,7,22)             119.99           estimate D2E/DX2                !
 ! A21   A(8,7,22)             119.977          estimate D2E/DX2                !
 ! A22   A(7,8,9)              119.9788         estimate D2E/DX2                !
 ! A23   A(7,8,19)             120.0406         estimate D2E/DX2                !
 ! A24   A(9,8,19)             119.9806         estimate D2E/DX2                !
 ! A25   A(8,9,10)             119.97           estimate D2E/DX2                !
 ! A26   A(8,9,11)             119.9989         estimate D2E/DX2                !
 ! A27   A(10,9,11)            120.0311         estimate D2E/DX2                !
 ! A28   A(5,10,9)             120.0578         estimate D2E/DX2                !
 ! A29   A(5,10,14)            119.9915         estimate D2E/DX2                !
 ! A30   A(9,10,14)            119.9507         estimate D2E/DX2                !
 ! A31   A(9,11,12)            120.3337         estimate D2E/DX2                !
 ! A32   A(9,11,17)            120.3642         estimate D2E/DX2                !
 ! A33   A(12,11,17)           119.3021         estimate D2E/DX2                !
 ! A34   A(11,12,13)           119.5326         estimate D2E/DX2                !
 ! A35   A(11,12,30)           119.451          estimate D2E/DX2                !
 ! A36   A(13,12,30)           121.0164         estimate D2E/DX2                !
 ! A37   A(12,13,14)           119.8388         estimate D2E/DX2                !
 ! A38   A(12,13,27)           120.9752         estimate D2E/DX2                !
 ! A39   A(14,13,27)           119.186          estimate D2E/DX2                !
 ! A40   A(10,14,13)           120.3131         estimate D2E/DX2                !
 ! A41   A(10,14,15)           120.4193         estimate D2E/DX2                !
 ! A42   A(13,14,15)           119.2676         estimate D2E/DX2                !
 ! A43   A(14,15,16)           119.5436         estimate D2E/DX2                !
 ! A44   A(14,15,25)           119.6644         estimate D2E/DX2                !
 ! A45   A(16,15,25)           120.792          estimate D2E/DX2                !
 ! A46   A(6,16,15)            119.65           estimate D2E/DX2                !
 ! A47   A(6,16,42)            119.4185         estimate D2E/DX2                !
 ! A48   A(15,16,42)           120.9315         estimate D2E/DX2                !
 ! A49   A(11,17,18)           119.648          estimate D2E/DX2                !
 ! A50   A(11,17,28)           119.2707         estimate D2E/DX2                !
 ! A51   A(18,17,28)           121.0813         estimate D2E/DX2                !
 ! A52   A(17,18,19)           119.6692         estimate D2E/DX2                !
 ! A53   A(17,18,34)           121.0142         estimate D2E/DX2                !
 ! A54   A(19,18,34)           119.3166         estimate D2E/DX2                !
 ! A55   A(8,19,18)            120.3391         estimate D2E/DX2                !
 ! A56   A(8,19,20)            120.305          estimate D2E/DX2                !
 ! A57   A(18,19,20)           119.3559         estimate D2E/DX2                !
 ! A58   A(19,20,21)           119.6634         estimate D2E/DX2                !
 ! A59   A(19,20,36)           119.3031         estimate D2E/DX2                !
 ! A60   A(21,20,36)           121.0335         estimate D2E/DX2                !
 ! A61   A(20,21,22)           119.6986         estimate D2E/DX2                !
 ! A62   A(20,21,33)           120.9968         estimate D2E/DX2                !
 ! A63   A(22,21,33)           119.3046         estimate D2E/DX2                !
 ! A64   A(7,22,21)            120.3154         estimate D2E/DX2                !
 ! A65   A(7,22,23)            120.3205         estimate D2E/DX2                !
 ! A66   A(21,22,23)           119.3641         estimate D2E/DX2                !
 ! A67   A(22,23,24)           119.6868         estimate D2E/DX2                !
 ! A68   A(22,23,31)           119.2927         estimate D2E/DX2                !
 ! A69   A(24,23,31)           121.0205         estimate D2E/DX2                !
 ! A70   A(3,24,23)            119.6801         estimate D2E/DX2                !
 ! A71   A(3,24,39)            119.2902         estimate D2E/DX2                !
 ! A72   A(23,24,39)           121.0296         estimate D2E/DX2                !
 ! A73   A(15,25,26)           120.7645         estimate D2E/DX2                !
 ! A74   A(15,25,53)           121.9209         estimate D2E/DX2                !
 ! A75   A(26,25,53)           117.3146         estimate D2E/DX2                !
 ! A76   A(25,26,27)           119.8231         estimate D2E/DX2                !
 ! A77   A(25,26,43)           124.54           estimate D2E/DX2                !
 ! A78   A(27,26,43)           115.6369         estimate D2E/DX2                !
 ! A79   A(13,27,26)           121.2944         estimate D2E/DX2                !
 ! A80   A(13,27,52)           121.9143         estimate D2E/DX2                !
 ! A81   A(26,27,52)           116.7912         estimate D2E/DX2                !
 ! A82   A(17,28,29)           121.0844         estimate D2E/DX2                !
 ! A83   A(17,28,61)           120.533          estimate D2E/DX2                !
 ! A84   A(29,28,61)           118.3827         estimate D2E/DX2                !
 ! A85   A(28,29,30)           119.9643         estimate D2E/DX2                !
 ! A86   A(28,29,60)           120.0103         estimate D2E/DX2                !
 ! A87   A(30,29,60)           120.0254         estimate D2E/DX2                !
 ! A88   A(12,30,29)           120.9274         estimate D2E/DX2                !
 ! A89   A(12,30,59)           120.535          estimate D2E/DX2                !
 ! A90   A(29,30,59)           118.5376         estimate D2E/DX2                !
 ! A91   A(23,31,32)           121.0363         estimate D2E/DX2                !
 ! A92   A(23,31,64)           120.5822         estimate D2E/DX2                !
 ! A93   A(32,31,64)           118.3815         estimate D2E/DX2                !
 ! A94   A(31,32,33)           119.9757         estimate D2E/DX2                !
 ! A95   A(31,32,63)           120.0107         estimate D2E/DX2                !
 ! A96   A(33,32,63)           120.0136         estimate D2E/DX2                !
 ! A97   A(21,33,32)           121.0265         estimate D2E/DX2                !
 ! A98   A(21,33,62)           120.5619         estimate D2E/DX2                !
 ! A99   A(32,33,62)           118.4116         estimate D2E/DX2                !
 ! A100  A(18,34,35)           121.0216         estimate D2E/DX2                !
 ! A101  A(18,34,67)           120.5582         estimate D2E/DX2                !
 ! A102  A(35,34,67)           118.4202         estimate D2E/DX2                !
 ! A103  A(34,35,36)           119.9696         estimate D2E/DX2                !
 ! A104  A(34,35,66)           120.0189         estimate D2E/DX2                !
 ! A105  A(36,35,66)           120.0115         estimate D2E/DX2                !
 ! A106  A(20,36,35)           121.0332         estimate D2E/DX2                !
 ! A107  A(20,36,65)           120.5745         estimate D2E/DX2                !
 ! A108  A(35,36,65)           118.3923         estimate D2E/DX2                !
 ! A109  A(2,37,38)            121.0198         estimate D2E/DX2                !
 ! A110  A(2,37,70)            120.5646         estimate D2E/DX2                !
 ! A111  A(38,37,70)           118.4156         estimate D2E/DX2                !
 ! A112  A(37,38,39)           119.9726         estimate D2E/DX2                !
 ! A113  A(37,38,69)           120.0143         estimate D2E/DX2                !
 ! A114  A(39,38,69)           120.0132         estimate D2E/DX2                !
 ! A115  A(24,39,38)           121.0385         estimate D2E/DX2                !
 ! A116  A(24,39,68)           120.5874         estimate D2E/DX2                !
 ! A117  A(38,39,68)           118.3741         estimate D2E/DX2                !
 ! A118  A(1,40,41)            121.0678         estimate D2E/DX2                !
 ! A119  A(1,40,73)            120.5372         estimate D2E/DX2                !
 ! A120  A(41,40,73)           118.395          estimate D2E/DX2                !
 ! A121  A(40,41,42)           119.9466         estimate D2E/DX2                !
 ! A122  A(40,41,72)           120.0332         estimate D2E/DX2                !
 ! A123  A(42,41,72)           120.0202         estimate D2E/DX2                !
 ! A124  A(16,42,41)           120.975          estimate D2E/DX2                !
 ! A125  A(16,42,71)           120.4775         estimate D2E/DX2                !
 ! A126  A(41,42,71)           118.5475         estimate D2E/DX2                !
 ! A127  A(26,43,44)           114.7707         estimate D2E/DX2                !
 ! A128  A(43,44,45)           115.4747         estimate D2E/DX2                !
 ! A129  A(44,45,46)           124.6233         estimate D2E/DX2                !
 ! A130  A(44,45,50)           116.0526         estimate D2E/DX2                !
 ! A131  A(46,45,50)           119.3241         estimate D2E/DX2                !
 ! A132  A(45,46,47)           120.2157         estimate D2E/DX2                !
 ! A133  A(45,46,54)           119.0162         estimate D2E/DX2                !
 ! A134  A(47,46,54)           120.7681         estimate D2E/DX2                !
 ! A135  A(46,47,48)           120.1201         estimate D2E/DX2                !
 ! A136  A(46,47,55)           121.2596         estimate D2E/DX2                !
 ! A137  A(48,47,55)           118.6203         estimate D2E/DX2                !
 ! A138  A(47,48,49)           120.013          estimate D2E/DX2                !
 ! A139  A(47,48,51)           117.1433         estimate D2E/DX2                !
 ! A140  A(49,48,51)           122.8437         estimate D2E/DX2                !
 ! A141  A(48,49,50)           119.4989         estimate D2E/DX2                !
 ! A142  A(48,49,58)           120.0269         estimate D2E/DX2                !
 ! A143  A(50,49,58)           120.4742         estimate D2E/DX2                !
 ! A144  A(45,50,49)           120.8282         estimate D2E/DX2                !
 ! A145  A(45,50,57)           118.5353         estimate D2E/DX2                !
 ! A146  A(49,50,57)           120.6365         estimate D2E/DX2                !
 ! A147  A(48,51,56)           109.7306         estimate D2E/DX2                !
 ! D1    D(6,1,2,3)             -0.0164         estimate D2E/DX2                !
 ! D2    D(6,1,2,37)           179.9816         estimate D2E/DX2                !
 ! D3    D(40,1,2,3)           179.9833         estimate D2E/DX2                !
 ! D4    D(40,1,2,37)           -0.0187         estimate D2E/DX2                !
 ! D5    D(2,1,6,5)              0.0141         estimate D2E/DX2                !
 ! D6    D(2,1,6,16)          -179.9887         estimate D2E/DX2                !
 ! D7    D(40,1,6,5)          -179.9856         estimate D2E/DX2                !
 ! D8    D(40,1,6,16)            0.0116         estimate D2E/DX2                !
 ! D9    D(2,1,40,41)          179.9944         estimate D2E/DX2                !
 ! D10   D(2,1,40,73)           -0.0089         estimate D2E/DX2                !
 ! D11   D(6,1,40,41)           -0.006          estimate D2E/DX2                !
 ! D12   D(6,1,40,73)          179.9908         estimate D2E/DX2                !
 ! D13   D(1,2,3,4)              0.0074         estimate D2E/DX2                !
 ! D14   D(1,2,3,24)          -179.9942         estimate D2E/DX2                !
 ! D15   D(37,2,3,4)          -179.9906         estimate D2E/DX2                !
 ! D16   D(37,2,3,24)            0.0078         estimate D2E/DX2                !
 ! D17   D(1,2,37,38)          179.9973         estimate D2E/DX2                !
 ! D18   D(1,2,37,70)           -0.0059         estimate D2E/DX2                !
 ! D19   D(3,2,37,38)           -0.0047         estimate D2E/DX2                !
 ! D20   D(3,2,37,70)          179.9921         estimate D2E/DX2                !
 ! D21   D(2,3,4,5)              0.0038         estimate D2E/DX2                !
 ! D22   D(2,3,4,7)           -179.9985         estimate D2E/DX2                !
 ! D23   D(24,3,4,5)          -179.9946         estimate D2E/DX2                !
 ! D24   D(24,3,4,7)             0.0031         estimate D2E/DX2                !
 ! D25   D(2,3,24,23)          179.995          estimate D2E/DX2                !
 ! D26   D(2,3,24,39)           -0.0055         estimate D2E/DX2                !
 ! D27   D(4,3,24,23)           -0.0066         estimate D2E/DX2                !
 ! D28   D(4,3,24,39)          179.9929         estimate D2E/DX2                !
 ! D29   D(3,4,5,6)             -0.0062         estimate D2E/DX2                !
 ! D30   D(3,4,5,10)           179.9972         estimate D2E/DX2                !
 ! D31   D(7,4,5,6)            179.9962         estimate D2E/DX2                !
 ! D32   D(7,4,5,10)            -0.0005         estimate D2E/DX2                !
 ! D33   D(3,4,7,8)           -179.9998         estimate D2E/DX2                !
 ! D34   D(3,4,7,22)             0.0008         estimate D2E/DX2                !
 ! D35   D(5,4,7,8)             -0.0021         estimate D2E/DX2                !
 ! D36   D(5,4,7,22)           179.9985         estimate D2E/DX2                !
 ! D37   D(4,5,6,1)             -0.0029         estimate D2E/DX2                !
 ! D38   D(4,5,6,16)           180.0            estimate D2E/DX2                !
 ! D39   D(10,5,6,1)           179.9938         estimate D2E/DX2                !
 ! D40   D(10,5,6,16)           -0.0034         estimate D2E/DX2                !
 ! D41   D(4,5,10,9)             0.0027         estimate D2E/DX2                !
 ! D42   D(4,5,10,14)         -179.9942         estimate D2E/DX2                !
 ! D43   D(6,5,10,9)          -179.994          estimate D2E/DX2                !
 ! D44   D(6,5,10,14)            0.0092         estimate D2E/DX2                !
 ! D45   D(1,6,16,15)          179.9921         estimate D2E/DX2                !
 ! D46   D(1,6,16,42)           -0.0093         estimate D2E/DX2                !
 ! D47   D(5,6,16,15)           -0.0107         estimate D2E/DX2                !
 ! D48   D(5,6,16,42)          179.9878         estimate D2E/DX2                !
 ! D49   D(4,7,8,9)              0.0025         estimate D2E/DX2                !
 ! D50   D(4,7,8,19)          -179.9995         estimate D2E/DX2                !
 ! D51   D(22,7,8,9)          -179.9981         estimate D2E/DX2                !
 ! D52   D(22,7,8,19)           -0.0001         estimate D2E/DX2                !
 ! D53   D(4,7,22,21)          179.9991         estimate D2E/DX2                !
 ! D54   D(4,7,22,23)           -0.0011         estimate D2E/DX2                !
 ! D55   D(8,7,22,21)           -0.0003         estimate D2E/DX2                !
 ! D56   D(8,7,22,23)          179.9995         estimate D2E/DX2                !
 ! D57   D(7,8,9,10)            -0.0003         estimate D2E/DX2                !
 ! D58   D(7,8,9,11)          -179.9976         estimate D2E/DX2                !
 ! D59   D(19,8,9,10)         -179.9983         estimate D2E/DX2                !
 ! D60   D(19,8,9,11)            0.0044         estimate D2E/DX2                !
 ! D61   D(7,8,19,18)          179.9988         estimate D2E/DX2                !
 ! D62   D(7,8,19,20)           -0.0024         estimate D2E/DX2                !
 ! D63   D(9,8,19,18)           -0.0032         estimate D2E/DX2                !
 ! D64   D(9,8,19,20)          179.9956         estimate D2E/DX2                !
 ! D65   D(8,9,10,5)            -0.0023         estimate D2E/DX2                !
 ! D66   D(8,9,10,14)          179.9945         estimate D2E/DX2                !
 ! D67   D(11,9,10,5)          179.995          estimate D2E/DX2                !
 ! D68   D(11,9,10,14)          -0.0082         estimate D2E/DX2                !
 ! D69   D(8,9,11,12)         -179.9989         estimate D2E/DX2                !
 ! D70   D(8,9,11,17)            0.0033         estimate D2E/DX2                !
 ! D71   D(10,9,11,12)           0.0038         estimate D2E/DX2                !
 ! D72   D(10,9,11,17)        -179.994          estimate D2E/DX2                !
 ! D73   D(5,10,14,13)         179.9965         estimate D2E/DX2                !
 ! D74   D(5,10,14,15)          -0.0006         estimate D2E/DX2                !
 ! D75   D(9,10,14,13)          -0.0004         estimate D2E/DX2                !
 ! D76   D(9,10,14,15)        -179.9975         estimate D2E/DX2                !
 ! D77   D(9,11,12,13)           0.0089         estimate D2E/DX2                !
 ! D78   D(9,11,12,30)        -179.9897         estimate D2E/DX2                !
 ! D79   D(17,11,12,13)       -179.9933         estimate D2E/DX2                !
 ! D80   D(17,11,12,30)          0.0081         estimate D2E/DX2                !
 ! D81   D(9,11,17,18)          -0.0121         estimate D2E/DX2                !
 ! D82   D(9,11,17,28)         179.9878         estimate D2E/DX2                !
 ! D83   D(12,11,17,18)        179.9901         estimate D2E/DX2                !
 ! D84   D(12,11,17,28)         -0.0099         estimate D2E/DX2                !
 ! D85   D(11,12,13,14)         -0.0174         estimate D2E/DX2                !
 ! D86   D(11,12,13,27)        179.9812         estimate D2E/DX2                !
 ! D87   D(30,12,13,14)        179.9812         estimate D2E/DX2                !
 ! D88   D(30,12,13,27)         -0.0202         estimate D2E/DX2                !
 ! D89   D(11,12,30,29)         -0.0013         estimate D2E/DX2                !
 ! D90   D(11,12,30,59)        179.9955         estimate D2E/DX2                !
 ! D91   D(13,12,30,29)       -179.9998         estimate D2E/DX2                !
 ! D92   D(13,12,30,59)         -0.0031         estimate D2E/DX2                !
 ! D93   D(12,13,14,10)          0.0131         estimate D2E/DX2                !
 ! D94   D(12,13,14,15)       -179.9897         estimate D2E/DX2                !
 ! D95   D(27,13,14,10)       -179.9855         estimate D2E/DX2                !
 ! D96   D(27,13,14,15)          0.0116         estimate D2E/DX2                !
 ! D97   D(12,13,27,26)        179.9975         estimate D2E/DX2                !
 ! D98   D(12,13,27,52)         -0.0055         estimate D2E/DX2                !
 ! D99   D(14,13,27,26)         -0.0039         estimate D2E/DX2                !
 ! D100  D(14,13,27,52)        179.9931         estimate D2E/DX2                !
 ! D101  D(10,14,15,16)         -0.0134         estimate D2E/DX2                !
 ! D102  D(10,14,15,25)        179.9855         estimate D2E/DX2                !
 ! D103  D(13,14,15,16)        179.9894         estimate D2E/DX2                !
 ! D104  D(13,14,15,25)         -0.0116         estimate D2E/DX2                !
 ! D105  D(14,15,16,6)           0.0191         estimate D2E/DX2                !
 ! D106  D(14,15,16,42)       -179.9794         estimate D2E/DX2                !
 ! D107  D(25,15,16,6)        -179.9798         estimate D2E/DX2                !
 ! D108  D(25,15,16,42)          0.0216         estimate D2E/DX2                !
 ! D109  D(14,15,25,26)          0.0037         estimate D2E/DX2                !
 ! D110  D(14,15,25,53)       -179.994          estimate D2E/DX2                !
 ! D111  D(16,15,25,26)       -179.9973         estimate D2E/DX2                !
 ! D112  D(16,15,25,53)          0.0049         estimate D2E/DX2                !
 ! D113  D(6,16,42,41)           0.0014         estimate D2E/DX2                !
 ! D114  D(6,16,42,71)        -179.9952         estimate D2E/DX2                !
 ! D115  D(15,16,42,41)        179.9999         estimate D2E/DX2                !
 ! D116  D(15,16,42,71)          0.0034         estimate D2E/DX2                !
 ! D117  D(11,17,18,19)          0.0132         estimate D2E/DX2                !
 ! D118  D(11,17,18,34)       -179.9849         estimate D2E/DX2                !
 ! D119  D(28,17,18,19)       -179.9867         estimate D2E/DX2                !
 ! D120  D(28,17,18,34)          0.0152         estimate D2E/DX2                !
 ! D121  D(11,17,28,29)          0.005          estimate D2E/DX2                !
 ! D122  D(11,17,28,61)       -179.9923         estimate D2E/DX2                !
 ! D123  D(18,17,28,29)       -179.9951         estimate D2E/DX2                !
 ! D124  D(18,17,28,61)          0.0076         estimate D2E/DX2                !
 ! D125  D(17,18,19,8)          -0.0056         estimate D2E/DX2                !
 ! D126  D(17,18,19,20)        179.9956         estimate D2E/DX2                !
 ! D127  D(34,18,19,8)         179.9926         estimate D2E/DX2                !
 ! D128  D(34,18,19,20)         -0.0062         estimate D2E/DX2                !
 ! D129  D(17,18,34,35)       -179.9984         estimate D2E/DX2                !
 ! D130  D(17,18,34,67)          0.0044         estimate D2E/DX2                !
 ! D131  D(19,18,34,35)          0.0035         estimate D2E/DX2                !
 ! D132  D(19,18,34,67)       -179.9937         estimate D2E/DX2                !
 ! D133  D(8,19,20,21)           0.0053         estimate D2E/DX2                !
 ! D134  D(8,19,20,36)        -179.994          estimate D2E/DX2                !
 ! D135  D(18,19,20,21)       -179.996          estimate D2E/DX2                !
 ! D136  D(18,19,20,36)          0.0047         estimate D2E/DX2                !
 ! D137  D(19,20,21,22)         -0.0057         estimate D2E/DX2                !
 ! D138  D(19,20,21,33)        179.994          estimate D2E/DX2                !
 ! D139  D(36,20,21,22)        179.9936         estimate D2E/DX2                !
 ! D140  D(36,20,21,33)         -0.0067         estimate D2E/DX2                !
 ! D141  D(19,20,36,35)         -0.0005         estimate D2E/DX2                !
 ! D142  D(19,20,36,65)        179.9976         estimate D2E/DX2                !
 ! D143  D(21,20,36,35)       -179.9998         estimate D2E/DX2                !
 ! D144  D(21,20,36,65)         -0.0017         estimate D2E/DX2                !
 ! D145  D(20,21,22,7)           0.0032         estimate D2E/DX2                !
 ! D146  D(20,21,22,23)       -179.9967         estimate D2E/DX2                !
 ! D147  D(33,21,22,7)        -179.9965         estimate D2E/DX2                !
 ! D148  D(33,21,22,23)          0.0037         estimate D2E/DX2                !
 ! D149  D(20,21,33,32)        179.9987         estimate D2E/DX2                !
 ! D150  D(20,21,33,62)         -0.0024         estimate D2E/DX2                !
 ! D151  D(22,21,33,32)         -0.0016         estimate D2E/DX2                !
 ! D152  D(22,21,33,62)        179.9973         estimate D2E/DX2                !
 ! D153  D(7,22,23,24)          -0.0025         estimate D2E/DX2                !
 ! D154  D(7,22,23,31)         179.9969         estimate D2E/DX2                !
 ! D155  D(21,22,23,24)        179.9974         estimate D2E/DX2                !
 ! D156  D(21,22,23,31)         -0.0032         estimate D2E/DX2                !
 ! D157  D(22,23,24,3)           0.0063         estimate D2E/DX2                !
 ! D158  D(22,23,24,39)       -179.9932         estimate D2E/DX2                !
 ! D159  D(31,23,24,3)        -179.9931         estimate D2E/DX2                !
 ! D160  D(31,23,24,39)          0.0074         estimate D2E/DX2                !
 ! D161  D(22,23,31,32)          0.0007         estimate D2E/DX2                !
 ! D162  D(22,23,31,64)       -179.9981         estimate D2E/DX2                !
 ! D163  D(24,23,31,32)       -179.9999         estimate D2E/DX2                !
 ! D164  D(24,23,31,64)          0.0013         estimate D2E/DX2                !
 ! D165  D(3,24,39,38)           0.0            estimate D2E/DX2                !
 ! D166  D(3,24,39,68)        -179.9979         estimate D2E/DX2                !
 ! D167  D(23,24,39,38)        179.9995         estimate D2E/DX2                !
 ! D168  D(23,24,39,68)          0.0016         estimate D2E/DX2                !
 ! D169  D(15,25,26,27)          0.0042         estimate D2E/DX2                !
 ! D170  D(15,25,26,43)       -179.9942         estimate D2E/DX2                !
 ! D171  D(53,25,26,27)       -179.998          estimate D2E/DX2                !
 ! D172  D(53,25,26,43)          0.0037         estimate D2E/DX2                !
 ! D173  D(25,26,27,13)         -0.0041         estimate D2E/DX2                !
 ! D174  D(25,26,27,52)        179.9988         estimate D2E/DX2                !
 ! D175  D(43,26,27,13)        179.9944         estimate D2E/DX2                !
 ! D176  D(43,26,27,52)         -0.0027         estimate D2E/DX2                !
 ! D177  D(25,26,43,44)         -0.0079         estimate D2E/DX2                !
 ! D178  D(27,26,43,44)        179.9937         estimate D2E/DX2                !
 ! D179  D(17,28,29,30)          0.0019         estimate D2E/DX2                !
 ! D180  D(17,28,29,60)       -179.9982         estimate D2E/DX2                !
 ! D181  D(61,28,29,30)        179.9993         estimate D2E/DX2                !
 ! D182  D(61,28,29,60)         -0.0008         estimate D2E/DX2                !
 ! D183  D(28,29,30,12)         -0.0038         estimate D2E/DX2                !
 ! D184  D(28,29,30,59)        179.9993         estimate D2E/DX2                !
 ! D185  D(60,29,30,12)        179.9963         estimate D2E/DX2                !
 ! D186  D(60,29,30,59)         -0.0006         estimate D2E/DX2                !
 ! D187  D(23,31,32,33)          0.0013         estimate D2E/DX2                !
 ! D188  D(23,31,32,63)       -179.9986         estimate D2E/DX2                !
 ! D189  D(64,31,32,33)       -179.9998         estimate D2E/DX2                !
 ! D190  D(64,31,32,63)          0.0002         estimate D2E/DX2                !
 ! D191  D(31,32,33,21)         -0.0009         estimate D2E/DX2                !
 ! D192  D(31,32,33,62)       -179.9998         estimate D2E/DX2                !
 ! D193  D(63,32,33,21)        179.9991         estimate D2E/DX2                !
 ! D194  D(63,32,33,62)          0.0002         estimate D2E/DX2                !
 ! D195  D(18,34,35,36)          0.0008         estimate D2E/DX2                !
 ! D196  D(18,34,35,66)       -179.9989         estimate D2E/DX2                !
 ! D197  D(67,34,35,36)        179.998          estimate D2E/DX2                !
 ! D198  D(67,34,35,66)         -0.0016         estimate D2E/DX2                !
 ! D199  D(34,35,36,20)         -0.0023         estimate D2E/DX2                !
 ! D200  D(34,35,36,65)        179.9996         estimate D2E/DX2                !
 ! D201  D(66,35,36,20)        179.9974         estimate D2E/DX2                !
 ! D202  D(66,35,36,65)         -0.0007         estimate D2E/DX2                !
 ! D203  D(2,37,38,39)          -0.0008         estimate D2E/DX2                !
 ! D204  D(2,37,38,69)         179.999          estimate D2E/DX2                !
 ! D205  D(70,37,38,39)       -179.9977         estimate D2E/DX2                !
 ! D206  D(70,37,38,69)          0.0021         estimate D2E/DX2                !
 ! D207  D(37,38,39,24)          0.0032         estimate D2E/DX2                !
 ! D208  D(37,38,39,68)       -179.9989         estimate D2E/DX2                !
 ! D209  D(69,38,39,24)       -179.9966         estimate D2E/DX2                !
 ! D210  D(69,38,39,68)          0.0013         estimate D2E/DX2                !
 ! D211  D(1,40,41,42)          -0.0021         estimate D2E/DX2                !
 ! D212  D(1,40,41,72)         179.998          estimate D2E/DX2                !
 ! D213  D(73,40,41,42)       -179.9988         estimate D2E/DX2                !
 ! D214  D(73,40,41,72)          0.0012         estimate D2E/DX2                !
 ! D215  D(40,41,42,16)          0.0044         estimate D2E/DX2                !
 ! D216  D(40,41,42,71)       -179.999          estimate D2E/DX2                !
 ! D217  D(72,41,42,16)       -179.9957         estimate D2E/DX2                !
 ! D218  D(72,41,42,71)          0.0009         estimate D2E/DX2                !
 ! D219  D(26,43,44,45)        180.0            Frozen                          !
 ! D220  D(43,44,45,46)          0.0055         estimate D2E/DX2                !
 ! D221  D(43,44,45,50)       -179.9947         estimate D2E/DX2                !
 ! D222  D(44,45,46,47)       -179.9988         estimate D2E/DX2                !
 ! D223  D(44,45,46,54)          0.0005         estimate D2E/DX2                !
 ! D224  D(50,45,46,47)          0.0013         estimate D2E/DX2                !
 ! D225  D(50,45,46,54)       -179.9993         estimate D2E/DX2                !
 ! D226  D(44,45,50,49)        179.9996         estimate D2E/DX2                !
 ! D227  D(44,45,50,57)         -0.0014         estimate D2E/DX2                !
 ! D228  D(46,45,50,49)         -0.0006         estimate D2E/DX2                !
 ! D229  D(46,45,50,57)        179.9984         estimate D2E/DX2                !
 ! D230  D(45,46,47,48)         -0.0007         estimate D2E/DX2                !
 ! D231  D(45,46,47,55)        179.9997         estimate D2E/DX2                !
 ! D232  D(54,46,47,48)       -180.0            estimate D2E/DX2                !
 ! D233  D(54,46,47,55)          0.0004         estimate D2E/DX2                !
 ! D234  D(46,47,48,49)         -0.0008         estimate D2E/DX2                !
 ! D235  D(46,47,48,51)       -179.9996         estimate D2E/DX2                !
 ! D236  D(55,47,48,49)        179.9988         estimate D2E/DX2                !
 ! D237  D(55,47,48,51)          0.0            estimate D2E/DX2                !
 ! D238  D(47,48,49,50)          0.0015         estimate D2E/DX2                !
 ! D239  D(47,48,49,58)       -179.999          estimate D2E/DX2                !
 ! D240  D(51,48,49,50)       -179.9998         estimate D2E/DX2                !
 ! D241  D(51,48,49,58)         -0.0003         estimate D2E/DX2                !
 ! D242  D(47,48,51,56)       -179.9806         estimate D2E/DX2                !
 ! D243  D(49,48,51,56)          0.0207         estimate D2E/DX2                !
 ! D244  D(48,49,50,45)         -0.0008         estimate D2E/DX2                !
 ! D245  D(48,49,50,57)       -179.9998         estimate D2E/DX2                !
 ! D246  D(58,49,50,45)        179.9997         estimate D2E/DX2                !
 ! D247  D(58,49,50,57)          0.0007         estimate D2E/DX2                !
 --------------------------------------------------------------------------------
 Trust Radius=3.00D-01 FncErr=1.00D-07 GrdErr=1.00D-06
 Number of steps in this run=    438 maximum allowed number of steps=    438.
 GradGradGradGradGradGradGradGradGradGradGradGradGradGradGradGradGradGrad

 Symmetry turned off by external request.
 Stoichiometry    C48H22N2O
 Framework group  C1[X(C48H22N2O)]
 Deg. of freedom   213
 Full point group                 C1      NOp   1
                          Input orientation:                          
 ---------------------------------------------------------------------
 Center     Atomic      Atomic             Coordinates (Angstroms)
 Number     Number       Type             X           Y           Z
 ---------------------------------------------------------------------
      1          6           0       -0.040343    0.159929    0.065793
      2          6           0       -0.016696    0.175095    1.529544
      3          6           0        1.224949    0.123303    2.212408
      4          6           0        2.468090    0.055705    1.467534
      5          6           0        2.444988    0.041281    0.051175
      6          6           0        1.178587    0.093945   -0.655168
      7          6           0        3.706177    0.004125    2.157107
      8          6           0        4.920990   -0.061920    1.429912
      9          6           0        4.898234   -0.076360    0.012866
     10          6           0        3.660284   -0.024733   -0.676118
     11          6           0        6.141019   -0.143985   -0.731666
     12          6           0        6.126535   -0.158803   -2.149105
     13          6           0        4.847841   -0.105162   -2.857780
     14          6           0        3.637525   -0.039394   -2.124204
     15          6           0        2.402157    0.012034   -2.825050
     16          6           0        1.146740    0.079929   -2.072396
     17          6           0        7.383074   -0.196015   -0.049819
     18          6           0        7.406871   -0.180918    1.413939
     19          6           0        6.187634   -0.114702    2.135172
     20          6           0        6.218418   -0.100546    3.552565
     21          6           0        4.963657   -0.032390    4.303938
     22          6           0        3.729513    0.018943    3.607347
     23          6           0        2.518388    0.084907    4.342241
     24          6           0        1.240040    0.138242    3.630162
     25          6           0        2.398615   -0.002636   -4.217811
     26          6           0        3.590436   -0.067139   -4.931560
     27          6           0        4.798485   -0.117671   -4.253213
     28          6           0        8.567876   -0.261084   -0.790736
     29          6           0        8.545439   -0.275272   -2.175794
     30          6           0        7.335981   -0.224559   -2.848554
     31          6           0        2.565946    0.097928    5.740216
     32          6           0        3.774975    0.047493    6.414122
     33          6           0        4.961509   -0.016993    5.702764
     34          6           0        8.615915   -0.230827    2.115678
     35          6           0        8.638605   -0.216586    3.500457
     36          6           0        7.451655   -0.152117    4.211234
     37          6           0       -1.202651    0.240100    2.268818
     38          6           0       -1.180635    0.254408    3.653471
     39          6           0        0.028685    0.203941    4.326856
     40          6           0       -1.249341    0.209589   -0.636957
     41          6           0       -1.272245    0.195385   -2.021498
     42          6           0       -0.084825    0.131183   -2.732158
     43          7           0        3.680346   -0.086429   -6.350340
     44          7           0        2.584564   -0.040490   -6.944032
     45          6           0        2.656595   -0.058844   -8.354855
     46          6           0        3.849384   -0.123588   -9.091659
     47          6           0        3.813700   -0.136460  -10.472768
     48          6           0        2.583565   -0.084826  -11.145877
     49          6           0        1.391838   -0.020276  -10.419725
     50          6           0        1.436610   -0.007751   -9.031850
     51          8           0        2.618774   -0.100768  -12.496295
     52          1           0        5.699220   -0.167150   -4.859644
     53          1           0        1.476877    0.035309   -4.789844
     54          1           0        4.798222   -0.163267   -8.558437
     55          1           0        4.730044   -0.186442  -11.062159
     56          1           0        1.716588   -0.061086  -12.847539
     57          1           0        0.517486    0.042299   -8.446443
     58          1           0        0.434174    0.019908  -10.943440
     59          1           0        7.345412   -0.236982   -3.935516
     60          1           0        9.479710   -0.326347   -2.735933
     61          1           0        9.531342   -0.301873   -0.289121
     62          1           0        5.895509   -0.055588    6.257316
     63          1           0        3.792557    0.058559    7.504507
     64          1           0        1.650616    0.148063    6.324233
     65          1           0        7.499338   -0.142383    5.297119
     66          1           0        9.590634   -0.256112    4.030968
     67          1           0        9.562211   -0.281813    1.583266
     68          1           0        0.015676    0.216604    5.413647
     69          1           0       -2.115088    0.305394    4.213421
     70          1           0       -2.165664    0.280702    1.766368
     71          1           0       -0.129306    0.121317   -3.818213
     72          1           0       -2.224195    0.234705   -2.552070
     73          1           0       -2.195780    0.260363   -0.104819
 ---------------------------------------------------------------------
 Rotational constants (GHZ):      0.1030763      0.0326308      0.0247847
 Standard basis: CC-pVDZ (5D, 7F)
   824 basis functions,  1837 primitive gaussians,   875 cartesian basis functions
   166 alpha electrons      166 beta electrons
       nuclear repulsion energy      5716.3432645911 Hartrees.
 NAtoms=   73 NActive=   73 NUniq=   73 SFac= 1.00D+00 NAtFMM=   60 NAOKFM=T Big=T
 Integral buffers will be    131072 words long.
 Raffenetti 1 integral format.
 Two-electron integral symmetry is turned off.
 ------------------------------------------------------------------------------
 Polarizable Continuum Model (PCM)
 =================================
 Model                : PCM (using non-symmetric T matrix).
 Atomic radii         : UFF (Universal Force Field).
 Polarization charges : Total charges.
 Charge compensation  : None.
 Solution method      : On-the-fly selection.
 Cavity type          : Scaled VdW (van der Waals Surface) (Alpha=1.100).
 Cavity algorithm     : GePol (No added spheres)
                        Default sphere list used, NSphG=   73.
                        Lebedev-Laikov grids with approx.  5.0 points / Ang**2.
                        Smoothing algorithm: Karplus/York (Gamma=1.0000).
                        Polarization charges: spherical gaussians, with
                                              point-specific exponents (IZeta= 3).
                        Self-potential: point-specific (ISelfS= 7).
                        Self-field    : sphere-specific E.n sum rule (ISelfD= 2).
 1st derivatives      : Analytical E(r).r(x)/FMM algorithm (CHGder, D1EAlg=3).
                        Cavity 1st derivative terms included.
 Solvent              : Water, Eps=  78.355300 Eps(inf)=   1.777849
 ------------------------------------------------------------------------------
 One-electron integrals computed using PRISM.
 NBasis=   824 RedAO= T EigKep=  1.31D-05  NBF=   824
 NBsUse=   824 1.00D-06 EigRej= -1.00D+00 NBFU=   824
 Initial guess from the checkpoint file:  "Azo180.chk"
 B after Tr=     6.615037   -0.041750   -2.220481
         Rot=    0.537422   -0.509076    0.485236   -0.465365 Ang=-114.98 deg.
 Requested convergence on RMS density matrix=1.00D-08 within 128 cycles.
 Requested convergence on MAX density matrix=1.00D-06.
 Requested convergence on             energy=1.00D-06.
 No special actions if energy rises.
 Inv3:  Mode=1 IEnd=    74520768.
 Iteration    1 A*A^-1 deviation from unit magnitude is 7.77D-15 for   4982.
 Iteration    1 A*A^-1 deviation from orthogonality  is 3.98D-15 for   4966   2641.
 Iteration    1 A^-1*A deviation from unit magnitude is 7.99D-15 for   4982.
 Iteration    1 A^-1*A deviation from orthogonality  is 1.61D-10 for   4848   4834.
 Iteration    2 A*A^-1 deviation from unit magnitude is 3.77D-15 for    245.
 Iteration    2 A*A^-1 deviation from orthogonality  is 3.19D-15 for   3527    867.
 Iteration    2 A^-1*A deviation from unit magnitude is 1.11D-15 for    610.
 Iteration    2 A^-1*A deviation from orthogonality  is 5.78D-16 for   3953   3870.
 Error on total polarization charges =  0.02044
 SCF Done:  E(RCAM-B3LYP) =  -2026.27569889     A.U. after   12 cycles
            NFock= 12  Conv=0.72D-08     -V/T= 2.0059
 DoSCS=F DFT=T ScalE2(SS,OS)=  1.000000  1.000000
 ExpMin= 1.22D-01 ExpMax= 1.17D+04 ExpMxC= 4.01D+02 IAcc=3 IRadAn=         5 AccDes= 0.00D+00
 HarFok:  IExCor=  205 AccDes= 0.00D+00 IRadAn=         5 IDoV=-2 UseB2=F ITyADJ=14
 ICtDFT= 12500011 ScaDFX=  1.000000  1.000000  1.000000  1.000000
 Range of M.O.s used for correlation:    52   824
 NBasis=   824 NAE=   166 NBE=   166 NFC=    51 NFV=     0
 NROrb=    773 NOA=   115 NOB=   115 NVA=   658 NVB=   658

 **** Warning!!: The largest alpha MO coefficient is  0.43098709D+02

 Would need an additional        340683400000 words for in-memory AO integral storage.
 NEqPCM:  Using equilibrium solvation (IEInf=0, Eps=  78.3553, EpsInf=   1.7778)
    12 initial guesses have been made.
 Convergence on wavefunction:    0.000001000000000
 Iteration     1 Dimension    12 NMult     0 NNew     12
 CISAX will form    12 AO SS matrices at one time.
 New state      1 was old state      2
 New state      2 was old state      1
 New state      3 was old state      4
 Iteration     2 Dimension    18 NMult    12 NNew      6
 Iteration     3 Dimension    24 NMult    18 NNew      6
 Iteration     4 Dimension    30 NMult    24 NNew      6
 Iteration     5 Dimension    36 NMult    30 NNew      6
 Iteration     6 Dimension    42 NMult    36 NNew      6
 Iteration     7 Dimension    48 NMult    42 NNew      6
 Iteration     8 Dimension    54 NMult    48 NNew      6
 Iteration     9 Dimension    60 NMult    54 NNew      6
 Iteration    10 Dimension    66 NMult    60 NNew      6
 Iteration    11 Dimension    72 NMult    66 NNew      6
 No map to state      3
 Iteration    12 Dimension    78 NMult    72 NNew      6
 New state      1 was old state      3
 New state      2 was old state      1
 New state      3 was old state      2
 Iteration    13 Dimension    84 NMult    78 NNew      6
 Iteration    14 Dimension    90 NMult    84 NNew      6
 Iteration    15 Dimension    94 NMult    90 NNew      4
 Iteration    16 Dimension    96 NMult    94 NNew      2
 Iteration    17 Dimension    98 NMult    96 NNew      2
 Iteration    18 Dimension   100 NMult    98 NNew      2
 Iteration    19 Dimension   102 NMult   100 NNew      2
 Iteration    20 Dimension   104 NMult   102 NNew      2
 Iteration    21 Dimension   106 NMult   104 NNew      2
 Iteration    22 Dimension   108 NMult   106 NNew      2
 ***********************************************************************
 Excited states from <AA,BB:AA,BB> singles matrix:
 ***********************************************************************
 
 Ground to excited state transition densities written to RWF  633
 Ground to excited state transition electric dipole moments (Au):
       state          X           Y           Z        Dip. S.      Osc.
         1         0.0003      0.0056      0.0000      0.0000      0.0000
         2         0.4433      0.0184      3.6761     13.7105      1.0776
         3        -0.4210      0.0506      2.8278      8.1763      0.6498
 Ground to excited state transition velocity dipole moments (Au):
       state          X           Y           Z        Dip. S.      Osc.
         1         0.0000     -0.0009      0.0000      0.0000      0.0000
         2        -0.0495     -0.0022     -0.4271      0.1849      1.0455
         3         0.0525     -0.0061     -0.3326      0.1134      0.6341
 Ground to excited state transition magnetic dipole moments (Au):
       state          X           Y           Z
         1         0.4985     -0.0148      0.8443
         2         0.0274      3.2263     -0.0200
         3         0.0167      2.4145     -0.0417
 Ground to excited state transition velocity quadrupole moments (Au):
       state          XX          YY          ZZ          XY          XZ          YZ
         1         0.0057     -0.0061     -0.0003      0.0607     -0.0003      0.0085
         2        -1.1488     -0.0091      5.5221      0.0144     -2.3507      0.0439
         3         0.4985     -0.0080      4.2862     -0.0288     -1.8641      0.0357
 <0|del|b> * <b|rxdel|0> + <0|del|b> * <b|delr+rdel|0>
 Rotatory Strengths (R) in cgs (10**-40 erg-esu-cm/Gauss)
       state          XX          YY          ZZ    R(velocity)    E-M Angle
         1         0.0592     -0.0645     -0.0297     -0.0117       90.00
         2       -30.1973     33.4327     -3.4208     -0.0618       90.00
         3        -7.8274     20.9320    -12.9046      0.0667       90.00
 1/2[<0|r|b>*<b|rxdel|0> + (<0|rxdel|b>*<b|r|0>)*]
 Rotatory Strengths (R) in cgs (10**-40 erg-esu-cm/Gauss)
       state          XX          YY          ZZ     R(length)
         1        -0.1014      0.0584      0.0071     -0.0120
         2        -8.5968    -42.0534     51.9954      0.4484
         3         4.9667    -86.4105     83.4101      0.6555
  1/2[<0|del|b>*<b|r|0> + (<0|r|b>*<b|del|0>)*] (Au)
       state          X           Y           Z        Dip. S.   Osc.(frdel)
         1         0.0000      0.0000      0.0000      0.0000      0.0000
         2        -0.0219      0.0000     -1.5701      1.5921      1.0614
         3        -0.0221     -0.0003     -0.9404      0.9628      0.6419

 Excitation energies and oscillator strengths:
 
 Excited state symmetry could not be determined.
 Excited State   1:      Singlet-?Sym    2.8261 eV  438.71 nm  f=0.0000  <S**2>=0.000
     162 ->167        -0.59634
     162 ->169        -0.18146
     162 ->170        -0.27743
     162 ->180         0.11499
 This state for optimization and/or second-order correction.
 Total Energy, E(TD-HF/TD-KS) =  -2026.17184191    
 Copying the excited state density for this state as the 1-particle RhoCI density.
 
 Excited state symmetry could not be determined.
 Excited State   2:      Singlet-?Sym    3.2082 eV  386.46 nm  f=1.0776  <S**2>=0.000
     163 ->167        -0.17007
     165 ->167        -0.33226
     165 ->170         0.11433
     166 ->167         0.47311
     166 ->168        -0.24045
 
 Excited state symmetry could not be determined.
 Excited State   3:      Singlet-?Sym    3.2439 eV  382.21 nm  f=0.6498  <S**2>=0.000
     163 ->167        -0.14465
     165 ->167         0.36440
     165 ->169        -0.12269
     165 ->170        -0.12294
     166 ->167         0.40247
     166 ->168         0.31477
 SavETr:  write IOETrn=   770 NScale= 10 NData=  16 NLR=1 NState=    3 LETran=      64.
          IDoAtm=11111111111111111111111111111111111111111111111111
          IDoAtm=11111111111111111111111
 NEqPCM:  Using equilibrium solvation (IEInf=0, Eps=  78.3553, EpsInf=   1.7778)
          Differentiating once with respect to electric field.
                with respect to dipole field.
          Differentiating once with respect to nuclear coordinates.
          There are     1 degrees of freedom in the 1st order CPHF.  IDoFFX=0 NUNeed=     1.
 LinEq1:  Iter=  0 NonCon=     1 RMS=9.90D-04 Max=5.40D-02 NDo=     1
 AX will form     1 AO Fock derivatives at one time.
 LinEq1:  Iter=  1 NonCon=     1 RMS=4.77D-04 Max=3.74D-02 NDo=     1
 LinEq1:  Iter=  2 NonCon=     1 RMS=1.90D-04 Max=1.70D-02 NDo=     1
 LinEq1:  Iter=  3 NonCon=     1 RMS=1.29D-04 Max=6.92D-03 NDo=     1
 LinEq1:  Iter=  4 NonCon=     1 RMS=5.88D-05 Max=4.18D-03 NDo=     1
 LinEq1:  Iter=  5 NonCon=     1 RMS=3.74D-05 Max=1.95D-03 NDo=     1
 LinEq1:  Iter=  6 NonCon=     1 RMS=1.63D-05 Max=1.21D-03 NDo=     1
 LinEq1:  Iter=  7 NonCon=     1 RMS=1.03D-05 Max=6.19D-04 NDo=     1
 LinEq1:  Iter=  8 NonCon=     1 RMS=5.11D-06 Max=4.15D-04 NDo=     1
 LinEq1:  Iter=  9 NonCon=     1 RMS=2.57D-06 Max=1.74D-04 NDo=     1
 LinEq1:  Iter= 10 NonCon=     1 RMS=1.18D-06 Max=7.25D-05 NDo=     1
 LinEq1:  Iter= 11 NonCon=     1 RMS=6.79D-07 Max=4.52D-05 NDo=     1
 LinEq1:  Iter= 12 NonCon=     1 RMS=2.92D-07 Max=2.04D-05 NDo=     1
 LinEq1:  Iter= 13 NonCon=     1 RMS=1.85D-07 Max=1.35D-05 NDo=     1
 LinEq1:  Iter= 14 NonCon=     1 RMS=6.91D-08 Max=5.34D-06 NDo=     1
 LinEq1:  Iter= 15 NonCon=     1 RMS=3.67D-08 Max=2.51D-06 NDo=     1
 LinEq1:  Iter= 16 NonCon=     1 RMS=1.64D-08 Max=8.17D-07 NDo=     1
 LinEq1:  Iter= 17 NonCon=     1 RMS=7.02D-09 Max=4.51D-07 NDo=     1
 LinEq1:  Iter= 18 NonCon=     1 RMS=4.13D-09 Max=1.87D-07 NDo=     1
 LinEq1:  Iter= 19 NonCon=     1 RMS=1.70D-09 Max=9.85D-08 NDo=     1
 LinEq1:  Iter= 20 NonCon=     1 RMS=8.04D-10 Max=3.76D-08 NDo=     1
 LinEq1:  Iter= 21 NonCon=     1 RMS=4.02D-10 Max=2.20D-08 NDo=     1
 LinEq1:  Iter= 22 NonCon=     1 RMS=2.22D-10 Max=1.20D-08 NDo=     1
 LinEq1:  Iter= 23 NonCon=     1 RMS=1.17D-10 Max=5.84D-09 NDo=     1
 LinEq1:  Iter= 24 NonCon=     1 RMS=4.67D-11 Max=1.89D-09 NDo=     1
 LinEq1:  Iter= 25 NonCon=     1 RMS=2.45D-11 Max=1.27D-09 NDo=     1
 LinEq1:  Iter= 26 NonCon=     0 RMS=1.21D-11 Max=9.49D-10 NDo=     1
 Linear equations converged to 1.000D-10 1.000D-09 after    26 iterations.
 End of Minotr F.D. properties file   721 does not exist.
 End of Minotr F.D. properties file   722 does not exist.
 End of Minotr F.D. properties file   788 does not exist.

 **********************************************************************

            Population analysis using the SCF density.

 **********************************************************************

 Alpha  occ. eigenvalues --  -19.25422 -14.45911 -14.45426 -10.33903 -10.29872
 Alpha  occ. eigenvalues --  -10.29157 -10.28831 -10.28816 -10.28803 -10.28785
 Alpha  occ. eigenvalues --  -10.28763 -10.28756 -10.28728 -10.28714 -10.28693
 Alpha  occ. eigenvalues --  -10.28512 -10.28505 -10.28438 -10.28437 -10.28434
 Alpha  occ. eigenvalues --  -10.28431 -10.28407 -10.28380 -10.28372 -10.28348
 Alpha  occ. eigenvalues --  -10.28343 -10.28334 -10.28331 -10.28319 -10.28316
 Alpha  occ. eigenvalues --  -10.27883 -10.27653 -10.27329 -10.27127 -10.27109
 Alpha  occ. eigenvalues --  -10.27087 -10.27073 -10.27029 -10.27029 -10.27025
 Alpha  occ. eigenvalues --  -10.27009 -10.27004 -10.26985 -10.26980 -10.26968
 Alpha  occ. eigenvalues --  -10.26931 -10.26927 -10.26918 -10.26916 -10.26912
 Alpha  occ. eigenvalues --  -10.26905  -1.15601  -1.12938  -1.01092  -0.98797
 Alpha  occ. eigenvalues --   -0.98611  -0.96421  -0.95789  -0.95414  -0.94897
 Alpha  occ. eigenvalues --   -0.93660  -0.90940  -0.90302  -0.90261  -0.88926
 Alpha  occ. eigenvalues --   -0.88200  -0.86863  -0.84896  -0.84481  -0.84337
 Alpha  occ. eigenvalues --   -0.84049  -0.83524  -0.83222  -0.82545  -0.79868
 Alpha  occ. eigenvalues --   -0.79578  -0.79408  -0.76685  -0.74437  -0.73533
 Alpha  occ. eigenvalues --   -0.72979  -0.72658  -0.71740  -0.71429  -0.70677
 Alpha  occ. eigenvalues --   -0.69508  -0.69270  -0.67750  -0.66802  -0.66409
 Alpha  occ. eigenvalues --   -0.65098  -0.63714  -0.62680  -0.62462  -0.62165
 Alpha  occ. eigenvalues --   -0.61956  -0.60515  -0.59807  -0.59379  -0.58687
 Alpha  occ. eigenvalues --   -0.57395  -0.56984  -0.56707  -0.55665  -0.55368
 Alpha  occ. eigenvalues --   -0.54258  -0.53954  -0.53422  -0.52756  -0.52364
 Alpha  occ. eigenvalues --   -0.52348  -0.51938  -0.51413  -0.51320  -0.51097
 Alpha  occ. eigenvalues --   -0.50957  -0.50671  -0.50115  -0.49984  -0.49561
 Alpha  occ. eigenvalues --   -0.49484  -0.49246  -0.49214  -0.49165  -0.49121
 Alpha  occ. eigenvalues --   -0.48674  -0.48659  -0.47938  -0.46838  -0.45875
 Alpha  occ. eigenvalues --   -0.45578  -0.45512  -0.45276  -0.44594  -0.44519
 Alpha  occ. eigenvalues --   -0.44404  -0.44321  -0.44176  -0.44144  -0.42884
 Alpha  occ. eigenvalues --   -0.42479  -0.42030  -0.41163  -0.41037  -0.40749
 Alpha  occ. eigenvalues --   -0.40572  -0.40363  -0.38959  -0.38598  -0.38231
 Alpha  occ. eigenvalues --   -0.37865  -0.37694  -0.36302  -0.36078  -0.32467
 Alpha  occ. eigenvalues --   -0.32299  -0.31620  -0.31493  -0.31283  -0.31230
 Alpha  occ. eigenvalues --   -0.30931  -0.30236  -0.27694  -0.26680  -0.24847
 Alpha  occ. eigenvalues --   -0.24580
 Alpha virt. eigenvalues --   -0.05278  -0.03695  -0.02781  -0.02501   0.00750
 Alpha virt. eigenvalues --    0.01196   0.01605   0.02719   0.02908   0.03160
 Alpha virt. eigenvalues --    0.04627   0.07356   0.07652   0.09309   0.10539
 Alpha virt. eigenvalues --    0.10602   0.11089   0.11278   0.11386   0.12089
 Alpha virt. eigenvalues --    0.12103   0.12198   0.12544   0.12928   0.13586
 Alpha virt. eigenvalues --    0.14277   0.14911   0.16005   0.16319   0.16957
 Alpha virt. eigenvalues --    0.17346   0.17835   0.18501   0.19950   0.19985
 Alpha virt. eigenvalues --    0.21881   0.21983   0.22637   0.22718   0.22823
 Alpha virt. eigenvalues --    0.24248   0.24676   0.24801   0.25730   0.26197
 Alpha virt. eigenvalues --    0.26414   0.26594   0.26679   0.27806   0.27994
 Alpha virt. eigenvalues --    0.28343   0.28592   0.28661   0.28925   0.29136
 Alpha virt. eigenvalues --    0.29221   0.29641   0.29879   0.30081   0.30313
 Alpha virt. eigenvalues --    0.30548   0.31055   0.31579   0.32518   0.32910
 Alpha virt. eigenvalues --    0.34073   0.34786   0.34893   0.35049   0.35704
 Alpha virt. eigenvalues --    0.36652   0.37112   0.37653   0.37962   0.38536
 Alpha virt. eigenvalues --    0.39528   0.39966   0.40489   0.40938   0.42155
 Alpha virt. eigenvalues --    0.42447   0.43838   0.44340   0.44805   0.46476
 Alpha virt. eigenvalues --    0.46572   0.47164   0.47367   0.47459   0.47971
 Alpha virt. eigenvalues --    0.48045   0.48383   0.49069   0.49205   0.49264
 Alpha virt. eigenvalues --    0.49415   0.50126   0.50323   0.50611   0.50806
 Alpha virt. eigenvalues --    0.50834   0.50856   0.51234   0.51428   0.51895
 Alpha virt. eigenvalues --    0.52103   0.52738   0.53156   0.53228   0.53255
 Alpha virt. eigenvalues --    0.53379   0.53543   0.53740   0.53848   0.54095
 Alpha virt. eigenvalues --    0.54182   0.54212   0.54333   0.54383   0.54438
 Alpha virt. eigenvalues --    0.54589   0.54985   0.55238   0.55493   0.55572
 Alpha virt. eigenvalues --    0.55617   0.55730   0.55757   0.56152   0.56188
 Alpha virt. eigenvalues --    0.56328   0.56588   0.56664   0.56963   0.57220
 Alpha virt. eigenvalues --    0.57338   0.57451   0.57527   0.57566   0.57849
 Alpha virt. eigenvalues --    0.58334   0.58404   0.58478   0.58608   0.58863
 Alpha virt. eigenvalues --    0.58949   0.58958   0.59239   0.59286   0.59369
 Alpha virt. eigenvalues --    0.59741   0.59945   0.60244   0.60606   0.61045
 Alpha virt. eigenvalues --    0.61393   0.61461   0.61924   0.61944   0.62201
 Alpha virt. eigenvalues --    0.62938   0.63063   0.63387   0.63421   0.64565
 Alpha virt. eigenvalues --    0.64589   0.65189   0.65526   0.66119   0.66320
 Alpha virt. eigenvalues --    0.66394   0.66563   0.66720   0.66915   0.67154
 Alpha virt. eigenvalues --    0.68037   0.70369   0.70440   0.70508   0.70845
 Alpha virt. eigenvalues --    0.71532   0.71998   0.72055   0.72460   0.72683
 Alpha virt. eigenvalues --    0.72764   0.73228   0.73406   0.73818   0.74072
 Alpha virt. eigenvalues --    0.74592   0.74912   0.75074   0.75424   0.75632
 Alpha virt. eigenvalues --    0.75737   0.76091   0.76273   0.76545   0.76773
 Alpha virt. eigenvalues --    0.76814   0.77081   0.77360   0.77652   0.78015
 Alpha virt. eigenvalues --    0.78286   0.78353   0.79200   0.79831   0.81101
 Alpha virt. eigenvalues --    0.81408   0.81438   0.83025   0.83039   0.83801
 Alpha virt. eigenvalues --    0.84194   0.85815   0.86135   0.86616   0.87202
 Alpha virt. eigenvalues --    0.87312   0.87898   0.89135   0.89562   0.90048
 Alpha virt. eigenvalues --    0.90600   0.90753   0.90932   0.92462   0.92539
 Alpha virt. eigenvalues --    0.92698   0.92930   0.93039   0.93077   0.93377
 Alpha virt. eigenvalues --    0.93834   0.93912   0.94870   0.95008   0.96114
 Alpha virt. eigenvalues --    0.96455   0.96803   0.96805   0.96938   0.97405
 Alpha virt. eigenvalues --    0.97724   0.98159   0.98238   0.98324   0.98736
 Alpha virt. eigenvalues --    0.99373   0.99444   0.99567   0.99572   0.99712
 Alpha virt. eigenvalues --    0.99741   1.00249   1.00476   1.00507   1.00874
 Alpha virt. eigenvalues --    1.01317   1.01587   1.01874   1.02161   1.02181
 Alpha virt. eigenvalues --    1.02774   1.02810   1.02816   1.03564   1.03584
 Alpha virt. eigenvalues --    1.03866   1.03970   1.04979   1.05440   1.05518
 Alpha virt. eigenvalues --    1.05576   1.06209   1.06237   1.06430   1.06467
 Alpha virt. eigenvalues --    1.06671   1.07412   1.08298   1.08629   1.08697
 Alpha virt. eigenvalues --    1.08966   1.09317   1.09398   1.09419   1.10328
 Alpha virt. eigenvalues --    1.10389   1.10775   1.11688   1.11841   1.12560
 Alpha virt. eigenvalues --    1.13032   1.13092   1.13413   1.13480   1.13853
 Alpha virt. eigenvalues --    1.13942   1.14477   1.14552   1.15081   1.15845
 Alpha virt. eigenvalues --    1.16008   1.16214   1.16880   1.17301   1.17830
 Alpha virt. eigenvalues --    1.18076   1.18462   1.19002   1.19966   1.20973
 Alpha virt. eigenvalues --    1.21789   1.22457   1.25673   1.25868   1.27919
 Alpha virt. eigenvalues --    1.28185   1.30515   1.31307   1.32045   1.32492
 Alpha virt. eigenvalues --    1.33372   1.34327   1.34777   1.36016   1.38188
 Alpha virt. eigenvalues --    1.38822   1.39978   1.39993   1.40339   1.40407
 Alpha virt. eigenvalues --    1.40477   1.40763   1.41075   1.41215   1.41348
 Alpha virt. eigenvalues --    1.41940   1.41994   1.42792   1.42803   1.42826
 Alpha virt. eigenvalues --    1.43194   1.43756   1.44319   1.44655   1.44832
 Alpha virt. eigenvalues --    1.45435   1.46108   1.46809   1.46947   1.47022
 Alpha virt. eigenvalues --    1.47559   1.48066   1.49540   1.49893   1.50451
 Alpha virt. eigenvalues --    1.50962   1.51433   1.51706   1.52238   1.52874
 Alpha virt. eigenvalues --    1.53328   1.53648   1.54025   1.54333   1.54507
 Alpha virt. eigenvalues --    1.54885   1.54997   1.55111   1.55893   1.56115
 Alpha virt. eigenvalues --    1.56241   1.57087   1.57230   1.57275   1.57518
 Alpha virt. eigenvalues --    1.57869   1.57922   1.58776   1.59500   1.59531
 Alpha virt. eigenvalues --    1.59898   1.60323   1.61450   1.61862   1.62073
 Alpha virt. eigenvalues --    1.62246   1.62834   1.63070   1.63582   1.64031
 Alpha virt. eigenvalues --    1.64385   1.65401   1.65637   1.66228   1.66333
 Alpha virt. eigenvalues --    1.66992   1.67086   1.67408   1.67563   1.67684
 Alpha virt. eigenvalues --    1.67816   1.67896   1.68092   1.68359   1.68490
 Alpha virt. eigenvalues --    1.68688   1.68763   1.69167   1.70050   1.70142
 Alpha virt. eigenvalues --    1.70499   1.70694   1.71050   1.71156   1.71264
 Alpha virt. eigenvalues --    1.71411   1.72408   1.72750   1.72881   1.73383
 Alpha virt. eigenvalues --    1.73581   1.73779   1.74155   1.74293   1.74422
 Alpha virt. eigenvalues --    1.74871   1.74981   1.75141   1.75296   1.75419
 Alpha virt. eigenvalues --    1.75703   1.76226   1.76580   1.77420   1.77659
 Alpha virt. eigenvalues --    1.77764   1.77938   1.78454   1.78834   1.79019
 Alpha virt. eigenvalues --    1.79480   1.79684   1.80711   1.81208   1.81511
 Alpha virt. eigenvalues --    1.81577   1.82047   1.82710   1.82883   1.83158
 Alpha virt. eigenvalues --    1.83315   1.83696   1.83979   1.84343   1.85361
 Alpha virt. eigenvalues --    1.85973   1.86153   1.86419   1.87149   1.87568
 Alpha virt. eigenvalues --    1.87625   1.87887   1.88060   1.88145   1.88683
 Alpha virt. eigenvalues --    1.89391   1.89866   1.90157   1.90353   1.90735
 Alpha virt. eigenvalues --    1.90852   1.91188   1.91279   1.91285   1.91561
 Alpha virt. eigenvalues --    1.91955   1.92468   1.93055   1.93305   1.93569
 Alpha virt. eigenvalues --    1.93852   1.94765   1.95081   1.95379   1.95424
 Alpha virt. eigenvalues --    1.95729   1.95939   1.96278   1.96481   1.97206
 Alpha virt. eigenvalues --    1.97354   1.97637   1.97885   1.98280   1.99045
 Alpha virt. eigenvalues --    1.99836   2.00156   2.00519   2.01054   2.01716
 Alpha virt. eigenvalues --    2.02117   2.02153   2.02794   2.04225   2.04332
 Alpha virt. eigenvalues --    2.04592   2.04972   2.05481   2.06201   2.06422
 Alpha virt. eigenvalues --    2.07751   2.08158   2.08320   2.08322   2.09217
 Alpha virt. eigenvalues --    2.09268   2.10038   2.11265   2.11687   2.11776
 Alpha virt. eigenvalues --    2.12487   2.13290   2.13487   2.14350   2.15785
 Alpha virt. eigenvalues --    2.15852   2.16294   2.17077   2.17635   2.18306
 Alpha virt. eigenvalues --    2.19300   2.19399   2.20720   2.21943   2.22055
 Alpha virt. eigenvalues --    2.23457   2.23501   2.23520   2.24086   2.25312
 Alpha virt. eigenvalues --    2.25570   2.26289   2.26583   2.26609   2.26803
 Alpha virt. eigenvalues --    2.27055   2.27443   2.28842   2.29584   2.29969
 Alpha virt. eigenvalues --    2.32205   2.32911   2.33755   2.34985   2.36836
 Alpha virt. eigenvalues --    2.38471   2.39058   2.39311   2.39405   2.39633
 Alpha virt. eigenvalues --    2.39716   2.40024   2.40263   2.40316   2.40871
 Alpha virt. eigenvalues --    2.41506   2.41640   2.42516   2.43479   2.44117
 Alpha virt. eigenvalues --    2.44282   2.47391   2.47731   2.48463   2.49459
 Alpha virt. eigenvalues --    2.50185   2.50766   2.50837   2.51355   2.51471
 Alpha virt. eigenvalues --    2.53483   2.54425   2.54700   2.55079   2.55456
 Alpha virt. eigenvalues --    2.56521   2.56560   2.57442   2.58400   2.58717
 Alpha virt. eigenvalues --    2.59484   2.59735   2.61376   2.63055   2.63852
 Alpha virt. eigenvalues --    2.65352   2.68243   2.68903   2.69841   2.70590
 Alpha virt. eigenvalues --    2.71320   2.72161   2.72554   2.74826   2.75553
 Alpha virt. eigenvalues --    2.75697   2.77066   2.77720   2.78517   2.80714
 Alpha virt. eigenvalues --    2.81108   2.81586   2.82090   2.82673   2.82964
 Alpha virt. eigenvalues --    2.83383   2.84048   2.88754   2.91008   2.95089
 Alpha virt. eigenvalues --    2.96363   2.97984   2.98077   2.98779   2.99128
 Alpha virt. eigenvalues --    2.99197   3.02800   3.06714   3.07384   3.07477
 Alpha virt. eigenvalues --    3.14178   3.15358   3.18143   3.20814   3.22182
 Alpha virt. eigenvalues --    3.23781   3.27738   3.32558   3.32804   3.38262
 Alpha virt. eigenvalues --    3.39393   3.42455   3.45792   3.46777   3.54698
 Alpha virt. eigenvalues --    3.54926   3.58123   3.58270   3.62518   3.63928
 Alpha virt. eigenvalues --    3.64164   3.76125   3.85566
          Condensed to atoms (all electrons):
 Mulliken charges:
[...]
 Alpha  occ. eigenvalues --   -0.64607  -0.63266  -0.62813  -0.62197  -0.61632
 Alpha  occ. eigenvalues --   -0.61627  -0.60021  -0.59552  -0.58934  -0.58368
 Alpha  occ. eigenvalues --   -0.56924  -0.56447  -0.56205  -0.55628  -0.54688
 Alpha  occ. eigenvalues --   -0.53988  -0.53647  -0.53006  -0.52223  -0.51850
 Alpha  occ. eigenvalues --   -0.51722  -0.51414  -0.50891  -0.50611  -0.50586
 Alpha  occ. eigenvalues --   -0.50528  -0.50160  -0.49812  -0.49449  -0.49116
 Alpha  occ. eigenvalues --   -0.49061  -0.48778  -0.48686  -0.48527  -0.48327
 Alpha  occ. eigenvalues --   -0.48107  -0.47891  -0.47596  -0.46448  -0.45634
 Alpha  occ. eigenvalues --   -0.44862  -0.44798  -0.44731  -0.44290  -0.43929
 Alpha  occ. eigenvalues --   -0.43892  -0.43856  -0.43713  -0.42937  -0.42288
 Alpha  occ. eigenvalues --   -0.42096  -0.41640  -0.41016  -0.40540  -0.40315
 Alpha  occ. eigenvalues --   -0.40064  -0.39670  -0.38171  -0.37841  -0.37428
 Alpha  occ. eigenvalues --   -0.37287  -0.37040  -0.35629  -0.35365  -0.32303
 Alpha  occ. eigenvalues --   -0.31778  -0.30934  -0.30696  -0.30570  -0.30507
 Alpha  occ. eigenvalues --   -0.30200  -0.27080  -0.26025  -0.25032  -0.24088
 Alpha  occ. eigenvalues --   -0.23747
 Alpha virt. eigenvalues --   -0.04922  -0.02917  -0.02053  -0.01916   0.01495
 Alpha virt. eigenvalues --    0.01956   0.02333   0.03172   0.03499   0.03807
 Alpha virt. eigenvalues --    0.05235   0.07929   0.08273   0.08298   0.10040
 Alpha virt. eigenvalues --    0.10361   0.10551   0.10892   0.11520   0.11776
 Alpha virt. eigenvalues --    0.12070   0.12386   0.12887   0.13312   0.13765
 Alpha virt. eigenvalues --    0.13886   0.14317   0.15436   0.15724   0.16810
 Alpha virt. eigenvalues --    0.17152   0.17690   0.18109   0.19335   0.20674
 Alpha virt. eigenvalues --    0.22271   0.22395   0.22523   0.22560   0.23620
 Alpha virt. eigenvalues --    0.24225   0.24645   0.25477   0.26020   0.26401
 Alpha virt. eigenvalues --    0.26653   0.26890   0.27001   0.28094   0.28457
 Alpha virt. eigenvalues --    0.28731   0.29169   0.29297   0.29416   0.29609
 Alpha virt. eigenvalues --    0.29645   0.30135   0.30294   0.30333   0.30551
 Alpha virt. eigenvalues --    0.30841   0.31358   0.31462   0.32637   0.33464
 Alpha virt. eigenvalues --    0.34412   0.35201   0.35610   0.35809   0.35844
 Alpha virt. eigenvalues --    0.36849   0.37781   0.38130   0.38314   0.38945
 Alpha virt. eigenvalues --    0.39941   0.40384   0.40959   0.41117   0.42712
 Alpha virt. eigenvalues --    0.42853   0.44111   0.44757   0.45242   0.46082
 Alpha virt. eigenvalues --    0.47083   0.47596   0.47841   0.47965   0.48416
 Alpha virt. eigenvalues --    0.48956   0.48977   0.49495   0.49683   0.50131
 Alpha virt. eigenvalues --    0.50152   0.50505   0.50772   0.50971   0.51387
 Alpha virt. eigenvalues --    0.51668   0.51676   0.51735   0.52332   0.52428
 Alpha virt. eigenvalues --    0.53049   0.53271   0.53480   0.53697   0.53870
 Alpha virt. eigenvalues --    0.53963   0.54024   0.54055   0.54305   0.54560
 Alpha virt. eigenvalues --    0.55013   0.55060   0.55117   0.55157   0.55310
 Alpha virt. eigenvalues --    0.55336   0.55512   0.55664   0.55699   0.55898
 Alpha virt. eigenvalues --    0.56147   0.56324   0.56449   0.56490   0.56817
 Alpha virt. eigenvalues --    0.56929   0.57035   0.57092   0.57529   0.57683
 Alpha virt. eigenvalues --    0.57824   0.58070   0.58238   0.58349   0.58385
 Alpha virt. eigenvalues --    0.58581   0.58733   0.59240   0.59265   0.59418
 Alpha virt. eigenvalues --    0.59587   0.59643   0.59850   0.59992   0.60105
 Alpha virt. eigenvalues --    0.60357   0.60608   0.60977   0.61069   0.61750
 Alpha virt. eigenvalues --    0.61907   0.62114   0.62361   0.62519   0.62737
 Alpha virt. eigenvalues --    0.63180   0.63686   0.63884   0.64078   0.64788
 Alpha virt. eigenvalues --    0.65245   0.65424   0.65714   0.66698   0.66891
 Alpha virt. eigenvalues --    0.67060   0.67163   0.67244   0.67694   0.68214
 Alpha virt. eigenvalues --    0.69003   0.70621   0.71069   0.71102   0.71347
 Alpha virt. eigenvalues --    0.71873   0.72141   0.72405   0.72719   0.72831
 Alpha virt. eigenvalues --    0.73076   0.73312   0.73770   0.74218   0.74311
 Alpha virt. eigenvalues --    0.74872   0.75492   0.75724   0.75962   0.76029
 Alpha virt. eigenvalues --    0.76199   0.76494   0.76574   0.76828   0.77007
 Alpha virt. eigenvalues --    0.77368   0.77376   0.77566   0.77705   0.78244
 Alpha virt. eigenvalues --    0.78403   0.78796   0.79369   0.80467   0.81221
 Alpha virt. eigenvalues --    0.81828   0.82462   0.83324   0.83938   0.84562
 Alpha virt. eigenvalues --    0.84918   0.86429   0.86680   0.87746   0.88145
 Alpha virt. eigenvalues --    0.88167   0.88959   0.89618   0.90172   0.90644
 Alpha virt. eigenvalues --    0.91016   0.91486   0.92294   0.92952   0.93341
 Alpha virt. eigenvalues --    0.93401   0.93605   0.93794   0.93916   0.93955
 Alpha virt. eigenvalues --    0.94564   0.95357   0.95670   0.95822   0.96500
 Alpha virt. eigenvalues --    0.96885   0.97096   0.97256   0.97406   0.97665
 Alpha virt. eigenvalues --    0.97980   0.98625   0.98722   0.99027   0.99141
 Alpha virt. eigenvalues --    0.99996   1.00071   1.00145   1.00164   1.00239
 Alpha virt. eigenvalues --    1.00368   1.00810   1.01053   1.01210   1.01767
 Alpha virt. eigenvalues --    1.01772   1.01961   1.02369   1.02649   1.02739
 Alpha virt. eigenvalues --    1.03324   1.03402   1.03440   1.04118   1.04260
 Alpha virt. eigenvalues --    1.04493   1.04718   1.05388   1.05458   1.05867
 Alpha virt. eigenvalues --    1.06166   1.06309   1.06817   1.06953   1.07058
 Alpha virt. eigenvalues --    1.07191   1.08109   1.08259   1.08913   1.09103
 Alpha virt. eigenvalues --    1.09180   1.09770   1.09844   1.09946   1.11049
 Alpha virt. eigenvalues --    1.11092   1.11302   1.12177   1.12345   1.12574
 Alpha virt. eigenvalues --    1.13506   1.13886   1.13962   1.14039   1.14336
 Alpha virt. eigenvalues --    1.14364   1.14666   1.14734   1.16239   1.16471
 Alpha virt. eigenvalues --    1.16527   1.16537   1.17197   1.17513   1.18164
 Alpha virt. eigenvalues --    1.18723   1.18825   1.19526   1.19653   1.21631
 Alpha virt. eigenvalues --    1.22396   1.23159   1.25175   1.26493   1.27614
 Alpha virt. eigenvalues --    1.28256   1.30600   1.31705   1.32422   1.32914
 Alpha virt. eigenvalues --    1.34020   1.34765   1.35511   1.36327   1.37204
 Alpha virt. eigenvalues --    1.38855   1.39564   1.40848   1.40883   1.41206
 Alpha virt. eigenvalues --    1.41299   1.41324   1.41391   1.41750   1.41973
 Alpha virt. eigenvalues --    1.42048   1.42147   1.43529   1.43652   1.43659
 Alpha virt. eigenvalues --    1.43861   1.44194   1.45044   1.45271   1.45578
 Alpha virt. eigenvalues --    1.45979   1.46976   1.47594   1.47666   1.47679
 Alpha virt. eigenvalues --    1.48170   1.48926   1.50310   1.50702   1.51114
 Alpha virt. eigenvalues --    1.51645   1.52192   1.52273   1.52743   1.53397
 Alpha virt. eigenvalues --    1.54038   1.54114   1.54354   1.55043   1.55196
 Alpha virt. eigenvalues --    1.55308   1.55320   1.55476   1.56558   1.56661
 Alpha virt. eigenvalues --    1.56760   1.57734   1.57799   1.58000   1.58071
 Alpha virt. eigenvalues --    1.58436   1.58448   1.59229   1.59826   1.60046
 Alpha virt. eigenvalues --    1.60288   1.60683   1.61400   1.61955   1.62995
 Alpha virt. eigenvalues --    1.63104   1.63553   1.63996   1.64693   1.65020
 Alpha virt. eigenvalues --    1.65978   1.66351   1.66608   1.66625   1.67063
 Alpha virt. eigenvalues --    1.67517   1.67564   1.67822   1.67954   1.68141
 Alpha virt. eigenvalues --    1.68240   1.68414   1.68561   1.68772   1.68966
 Alpha virt. eigenvalues --    1.69111   1.69377   1.69876   1.70409   1.70484
 Alpha virt. eigenvalues --    1.70505   1.70790   1.71427   1.71654   1.71761
 Alpha virt. eigenvalues --    1.72227   1.72917   1.73114   1.73140   1.73291
 Alpha virt. eigenvalues --    1.74016   1.74253   1.74700   1.74828   1.74916
 Alpha virt. eigenvalues --    1.75419   1.75678   1.75844   1.75893   1.76237
 Alpha virt. eigenvalues --    1.76437   1.76636   1.76925   1.77572   1.77925
 Alpha virt. eigenvalues --    1.78119   1.78239   1.78432   1.78965   1.79597
 Alpha virt. eigenvalues --    1.79778   1.80214   1.81268   1.81882   1.82010
 Alpha virt. eigenvalues --    1.82196   1.82617   1.83096   1.83126   1.83352
 Alpha virt. eigenvalues --    1.83733   1.83852   1.83944   1.84912   1.86046
 Alpha virt. eigenvalues --    1.86399   1.86954   1.87007   1.87288   1.87522
 Alpha virt. eigenvalues --    1.87949   1.88479   1.88523   1.88913   1.89277
 Alpha virt. eigenvalues --    1.89714   1.90097   1.90580   1.90961   1.91072
 Alpha virt. eigenvalues --    1.91185   1.91501   1.91646   1.91748   1.92056
 Alpha virt. eigenvalues --    1.92473   1.93216   1.93612   1.93655   1.94068
 Alpha virt. eigenvalues --    1.94324   1.95173   1.95684   1.95935   1.96065
 Alpha virt. eigenvalues --    1.96192   1.96377   1.96924   1.97543   1.97667
 Alpha virt. eigenvalues --    1.97872   1.97981   1.98640   1.98775   1.99566
 Alpha virt. eigenvalues --    2.00146   2.00550   2.00897   2.01304   2.02237
 Alpha virt. eigenvalues --    2.02373   2.02640   2.03352   2.03406   2.04782
 Alpha virt. eigenvalues --    2.05327   2.05542   2.06448   2.06788   2.06819
 Alpha virt. eigenvalues --    2.08173   2.08397   2.08531   2.08870   2.09394
 Alpha virt. eigenvalues --    2.09652   2.10481   2.11556   2.11869   2.12670
 Alpha virt. eigenvalues --    2.12834   2.13253   2.13885   2.14590   2.15550
 Alpha virt. eigenvalues --    2.16344   2.16419   2.17136   2.17226   2.18810
 Alpha virt. eigenvalues --    2.19508   2.19595   2.21042   2.21279   2.22212
 Alpha virt. eigenvalues --    2.23225   2.24038   2.24211   2.24363   2.24475
 Alpha virt. eigenvalues --    2.25850   2.26617   2.26830   2.27072   2.27171
 Alpha virt. eigenvalues --    2.27267   2.27780   2.28780   2.29653   2.30477
 Alpha virt. eigenvalues --    2.31781   2.33317   2.34418   2.35092   2.36178
 Alpha virt. eigenvalues --    2.38185   2.39506   2.39795   2.39947   2.40107
 Alpha virt. eigenvalues --    2.40122   2.40605   2.40691   2.40821   2.41157
 Alpha virt. eigenvalues --    2.41426   2.42238   2.42760   2.42942   2.43958
 Alpha virt. eigenvalues --    2.44762   2.45049   2.47065   2.48887   2.49428
 Alpha virt. eigenvalues --    2.49624   2.50777   2.51081   2.51405   2.51741
 Alpha virt. eigenvalues --    2.51801   2.53147   2.54593   2.55191   2.55631
 Alpha virt. eigenvalues --    2.56277   2.57342   2.58219   2.58570   2.59129
 Alpha virt. eigenvalues --    2.60313   2.60678   2.61470   2.63754   2.64351
 Alpha virt. eigenvalues --    2.67384   2.69540   2.70617   2.70934   2.72339
 Alpha virt. eigenvalues --    2.72608   2.72876   2.74104   2.75446   2.76595
 Alpha virt. eigenvalues --    2.77264   2.77493   2.78374   2.78918   2.81244
 Alpha virt. eigenvalues --    2.81389   2.82239   2.82657   2.82982   2.83483
 Alpha virt. eigenvalues --    2.83815   2.88195   2.90805   2.94636   2.95376
 Alpha virt. eigenvalues --    2.97069   2.98324   2.98540   2.99568   2.99671
 Alpha virt. eigenvalues --    3.00280   3.01964   3.07210   3.08194   3.08442
 Alpha virt. eigenvalues --    3.15487   3.16203   3.19223   3.22719   3.24707
 Alpha virt. eigenvalues --    3.26948   3.33380   3.33667   3.36554   3.38515
 Alpha virt. eigenvalues --    3.42388   3.44375   3.47027   3.47433   3.55568
 Alpha virt. eigenvalues --    3.55660   3.58915   3.58965   3.62983   3.64250
 Alpha virt. eigenvalues --    3.64640   3.76747   3.84912
          Condensed to atoms (all electrons):
 Mulliken charges:
               1
     1  C   -0.022223
     2  C   -0.018678
     3  C    0.072840
     4  C    0.063665
     5  C    0.049983
     6  C    0.080401
     7  C    0.054697
     8  C    0.063766
     9  C    0.050455
    10  C    0.079441
    11  C    0.079903
    12  C   -0.038215
    13  C    0.029424
    14  C    0.054543
    15  C    0.029199
    16  C   -0.040209
    17  C   -0.022556
    18  C   -0.018613
    19  C    0.072680
    20  C   -0.018942
    21  C   -0.020291
    22  C    0.077126
    23  C   -0.020323
    24  C   -0.019166
    25  C   -0.021012
    26  C    0.038893
    27  C   -0.004522
    28  C   -0.041324
    29  C    0.105132
    30  C   -0.037639
    31  C   -0.043248
    32  C    0.105031
    33  C   -0.043395
    34  C   -0.043428
    35  C    0.104941
    36  C   -0.043526
    37  C   -0.043473
    38  C    0.104958
    39  C   -0.043536
    40  C   -0.041258
    41  C    0.104941
    42  C   -0.033461
    43  N   -0.130461
    44  N   -0.124890
    45  C    0.001389
    46  C    0.058544
    47  C    0.051999
    48  C    0.045228
    49  C    0.006336
    50  C    0.078805
    51  O   -0.163342
    52  H   -0.054583
    53  H   -0.052676
    54  H   -0.014321
    55  H   -0.011686
    56  H    0.152617
    57  H   -0.022191
    58  H   -0.021587
    59  H   -0.033698
    60  H   -0.030931
    61  H   -0.039595
    62  H   -0.039387
    63  H   -0.031714
    64  H   -0.039421
    65  H   -0.039539
    66  H   -0.031832
    67  H   -0.039211
    68  H   -0.039620
    69  H   -0.031952
    70  H   -0.039369
    71  H   -0.034178
    72  H   -0.031681
    73  H   -0.040036
 Sum of Mulliken charges =   0.00000
 Mulliken charges with hydrogens summed into heavy atoms:
               1
     1  C   -0.022223
     2  C   -0.018678
     3  C    0.072840
     4  C    0.063665
     5  C    0.049983
     6  C    0.080401
     7  C    0.054697
     8  C    0.063766
     9  C    0.050455
    10  C    0.079441
    11  C    0.079903
    12  C   -0.038215
    13  C    0.029424
    14  C    0.054543
    15  C    0.029199
    16  C   -0.040209
    17  C   -0.022556
    18  C   -0.018613
    19  C    0.072680
    20  C   -0.018942
    21  C   -0.020291
    22  C    0.077126
    23  C   -0.020323
    24  C   -0.019166
    25  C   -0.073689
    26  C    0.038893
    27  C   -0.059106
    28  C   -0.080919
    29  C    0.074202
    30  C   -0.071337
    31  C   -0.082669
    32  C    0.073317
    33  C   -0.082782
    34  C   -0.082639
    35  C    0.073109
    36  C   -0.083066
    37  C   -0.082842
    38  C    0.073006
    39  C   -0.083156
    40  C   -0.081294
    41  C    0.073260
    42  C   -0.067639
    43  N   -0.130461
    44  N   -0.124890
    45  C    0.001389
    46  C    0.044223
    47  C    0.040313
    48  C    0.045228
    49  C   -0.015251
    50  C    0.056614
    51  O   -0.010725
 Electronic spatial extent (au):  <R**2>=          55712.9392
 Charge=              0.0000 electrons
 Dipole moment (field-independent basis, Debye):
    X=             -1.4412    Y=              0.0666    Z=             -0.9093  Tot=              1.7054
 Quadrupole moment (field-independent basis, Debye-Ang):
   XX=           -251.9025   YY=           -299.6797   ZZ=           -218.2301
   XY=             -2.3536   XZ=             18.2134   YZ=             -0.2076
 Traceless Quadrupole moment (field-independent basis, Debye-Ang):
   XX=              4.7016   YY=            -43.0756   ZZ=             38.3740
   XY=             -2.3536   XZ=             18.2134   YZ=             -0.2076
 Octapole moment (field-independent basis, Debye-Ang**2):
  XXX=          -2599.4380  YYY=             19.0882  ZZZ=            414.6095  XYY=          -1052.0032
  XXY=            -12.3462  XXZ=            370.2799  XZZ=          -1051.4571  YZZ=             15.1861
  YYZ=            310.4958  XYZ=              0.7383
 Hexadecapole moment (field-independent basis, Debye-Ang**3):
 XXXX=         -30332.3021 YYYY=           -361.4989 ZZZZ=         -32525.9735 XXXY=            163.9388
 XXXZ=           2116.2400 YYYX=            402.6506 YYYZ=           -185.5567 ZZZX=           4062.2469
 ZZZY=           -252.0072 XXYY=          -6253.9911 XXZZ=         -12420.3618 YYZZ=          -7598.5779
 XXYZ=            -44.2412 YYXZ=            627.4807 ZZXY=             91.1869
 N-N= 5.704124391008D+03 E-N=-1.611286057936D+04  KE= 2.014170071713D+03
 1\1\GINC-BOOTES\SP\RCAM-B3LYP TD-FC\CC-pVDZ\C48H22N2O1\TBERGS\13-May-2
 017\0\\#CAM-B3LYP/cc-pVDZ nosymm TD(NStates=2, triplets, root=1) guess
 =read geom=(allcheck,modredundant)\\Azo180 deg\\0,1\C,0,-0.0393592456,
 0.1577941969,0.0911185346\C,0,-0.0148312886,0.1733068646,1.5550992564\
 C,0,1.2274949782,0.1224082136,2.2370329253\C,0,2.4700668327,0.05525325
 38,1.4911046334\C,0,2.445783579,0.0403539721,0.0745399423\C,0,1.179516
 9013,0.0924021341,-0.6307703468\C,0,3.7078125136,0.0043851048,2.180037
 1966\C,0,4.921538328,-0.0617971379,1.450018115\C,0,4.8975195561,-0.077
 1436053,0.0337275714\C,0,3.659313372,-0.0258591515,-0.6563878576\C,0,6
 .1394441309,-0.1452764175,-0.7133677482\C,0,6.1249020036,-0.1611816858
 ,-2.1312518284\C,0,4.8449112525,-0.1077153102,-2.8446002451\C,0,3.6344
 839377,-0.040929555,-2.102150711\C,0,2.4010210992,0.0109111541,-2.8033
 623863\C,0,1.1460344648,0.0782273255,-2.0483241813\C,0,7.3819216776,-0
 .1967387231,-0.031939626\C,0,7.40714335,-0.1796733924,1.4319690588\C,0
 ,6.1888329323,-0.1133949001,2.1545731374\C,0,6.2211048258,-0.097653262
 6,3.5722755628\C,0,4.9672940641,-0.0300794757,4.325652673\C,0,3.732573
 9866,0.0201033232,3.6299028255\C,0,2.5223506267,0.0858590406,4.3661708
 85\C,0,1.2435167633,0.1376048019,3.6549474116\C,0,2.3880184411,-0.0025
 214177,-4.1953417771\C,0,3.5877433905,-0.0687945797,-4.9195258225\C,0,
 4.8070681873,-0.1215530827,-4.2343674304\C,0,8.5673331099,-0.263087699
 7,-0.772330782\C,0,8.5451283273,-0.2782854953,-2.1567699271\C,0,7.3348
 841731,-0.2273772918,-2.8288339535\C,0,2.5709702764,0.1003469518,5.764
 2103945\C,0,3.7804376062,0.0506042642,6.4372820865\C,0,4.9662935158,-0
 .0141676346,5.7244790807\C,0,8.6171585105,-0.227636243,2.1327084821\C,
 0,8.6413436207,-0.2113969063,3.5173515821\C,0,7.4551098131,-0.14704087
 58,4.2294522382\C,0,-1.200140324,0.23773261,2.295423651\C,0,-1.1771556
 662,0.2517823921,3.6801863812\C,0,0.0326032388,0.2019616469,4.35267793
 97\C,0,-1.2490928779,0.2065259129,-0.6098966293\C,0,-1.2738466514,0.19
 19234039,-1.9945172621\C,0,-0.0871435417,0.1283233047,-2.7059325342\N,
 0,3.5992125376,-0.0836755129,-6.2849450295\N,0,2.6400570201,-0.0418300
 966,-7.0798795045\C,0,2.6472941341,-0.0565528638,-8.4513410325\C,0,3.8
 477430832,-0.1323393189,-9.1884999718\C,0,3.8081774949,-0.1452769866,-
 10.5726694486\C,0,2.5868600602,-0.0839433444,-11.2506578842\C,0,1.3961
 400467,-0.0082586141,-10.5215712992\C,0,1.4218244629,0.0054911291,-9.1
 357912104\O,0,2.6194020389,-0.1012148868,-12.6082716594\H,0,5.71411028
 94,-0.1729661273,-4.8296628693\H,0,1.4632606031,0.0373411259,-4.763285
 6004\H,0,4.7972216439,-0.1804039716,-8.6551188388\H,0,4.7298795536,-0.
 2038938633,-11.1534624917\H,0,1.7155077393,-0.0570330602,-12.953244849
 1\H,0,0.494372052,0.0647837064,-8.5658628817\H,0,0.439608264,0.0412525
 378,-11.0465405798\H,0,7.3464279544,-0.240017972,-3.9157260685\H,0,9.4
 790618326,-0.3302419134,-2.7174238482\H,0,9.5305567838,-0.3041658909,-
 0.2703505272\H,0,5.9007780307,-0.0527116741,6.2784240208\H,0,3.7991049
 597,0.0624021467,7.5276424616\H,0,1.655752093,0.1511952635,6.348436085
 5\H,0,7.5038576447,-0.1355178886,5.3152620103\H,0,9.5940567414,-0.2493
 631089,4.0468055445\H,0,9.5630956731,-0.2784306633,1.5996922213\H,0,0.
 0210257084,0.213890708,5.439522784\H,0,-2.111290794,0.3021517109,4.240
 7870162\H,0,-2.163636493,0.2780904833,1.793906736\H,0,-0.1351932594,0.
 1178624558,-3.7917380198\H,0,-2.2263767484,0.2304887141,-2.5241009822\
 H,0,-2.1949399421,0.2567827482,-0.0766117997\\Version=ES64L-G09RevD.01
 \HF=-2026.2357269\RMSD=7.070e-09\PG=C01 [X(C48H22N2O1)]\\@


 FESTINA LENTE!
     - IMPERATOR AUGUSTUS 
 Job cpu time:       0 days  5 hours  4 minutes 33.0 seconds.
 File lengths (MBytes):  RWF=    835 Int=      0 D2E=      0 Chk=    161 Scr=      1
 Normal termination of Gaussian 09 at Sat May 13 11:53:25 2017.
