 Entering Gaussian System, Link 0=g09
 Input=Azo90excited.com
 Output=Azo90excited.log
 Initial command:
 /home/sknippen/PROGRAMS/GAUSSIAN/g09.d01/tar//g09/l1.exe "/scratch/tbergs/Gau-527.inp" -scrdir="/scratch/tbergs/"
 Entering Link 1 = /home/sknippen/PROGRAMS/GAUSSIAN/g09.d01/tar//g09/l1.exe PID=       529.
  
 Copyright (c) 1988,1990,1992,1993,1995,1998,2003,2009,2013,
            Gaussian, Inc.  All Rights Reserved.
  
 This is part of the Gaussian(R) 09 program.  It is based on
 the Gaussian(R) 03 system (copyright 2003, Gaussian, Inc.),
 the Gaussian(R) 98 system (copyright 1998, Gaussian, Inc.),
 the Gaussian(R) 94 system (copyright 1995, Gaussian, Inc.),
 the Gaussian 92(TM) system (copyright 1992, Gaussian, Inc.),
 the Gaussian 90(TM) system (copyright 1990, Gaussian, Inc.),
 the Gaussian 88(TM) system (copyright 1988, Gaussian, Inc.),
 the Gaussian 86(TM) system (copyright 1986, Carnegie Mellon
 University), and the Gaussian 82(TM) system (copyright 1983,
 Carnegie Mellon University). Gaussian is a federally registered
 trademark of Gaussian, Inc.
  
 This software contains proprietary and confidential information,
 including trade secrets, belonging to Gaussian, Inc.
  
 This software is provided under written license and may be
 used, copied, transmitted, or stored only in accord with that
 written license.
  
 The following legend is applicable only to US Government
 contracts under FAR:
  
                    RESTRICTED RIGHTS LEGEND
  
 Use, reproduction and disclosure by the US Government is
 subject to restrictions as set forth in subparagraphs (a)
 and (c) of the Commercial Computer Software - Restricted
 Rights clause in FAR 52.227-19.
  
 Gaussian, Inc.
 340 Quinnipiac St., Bldg. 40, Wallingford CT 06492
  
  
 ---------------------------------------------------------------
 Warning -- This program may not be used in any manner that
 competes with the business of Gaussian, Inc. or will provide
 assistance to any competitor of Gaussian, Inc.  The licensee
 of this program is prohibited from giving any competitor of
 Gaussian, Inc. access to this program.  By using this program,
 the user acknowledges that Gaussian, Inc. is engaged in the
 business of creating and licensing software in the field of
 computational chemistry and represents and warrants to the
 licensee that it is not a competitor of Gaussian, Inc. and that
 it will not use this program in any manner prohibited above.
 ---------------------------------------------------------------
  

 Cite this work as:
 Gaussian 09, Revision D.01,
 M. J. Frisch, G. W. Trucks, H. B. Schlegel, G. E. Scuseria, 
 M. A. Robb, J. R. Cheeseman, G. Scalmani, V. Barone, B. Mennucci, 
 G. A. Petersson, H. Nakatsuji, M. Caricato, X. Li, H. P. Hratchian, 
 A. F. Izmaylov, J. Bloino, G. Zheng, J. L. Sonnenberg, M. Hada, 
 M. Ehara, K. Toyota, R. Fukuda, J. Hasegawa, M. Ishida, T. Nakajima, 
 Y. Honda, O. Kitao, H. Nakai, T. Vreven, J. A. Montgomery, Jr., 
 J. E. Peralta, F. Ogliaro, M. Bearpark, J. J. Heyd, E. Brothers, 
 K. N. Kudin, V. N. Staroverov, T. Keith, R. Kobayashi, J. Normand, 
 K. Raghavachari, A. Rendell, J. C. Burant, S. S. Iyengar, J. Tomasi, 
 M. Cossi, N. Rega, J. M. Millam, M. Klene, J. E. Knox, J. B. Cross, 
 V. Bakken, C. Adamo, J. Jaramillo, R. Gomperts, R. E. Stratmann, 
 O. Yazyev, A. J. Austin, R. Cammi, C. Pomelli, J. W. Ochterski, 
 R. L. Martin, K. Morokuma, V. G. Zakrzewski, G. A. Voth, 
 P. Salvador, J. J. Dannenberg, S. Dapprich, A. D. Daniels, 
 O. Farkas, J. B. Foresman, J. V. Ortiz, J. Cioslowski, 
 and D. J. Fox, Gaussian, Inc., Wallingford CT, 2013.
 
 ******************************************
 Gaussian 09:  ES64L-G09RevD.01 24-Apr-2013
                10-May-2017 
 ******************************************
 %mem=50Gb
 %nprocs=20
 Will use up to   20 processors via shared memory.
 %chk=Azo90.chk
 ----------------------------------------------------------------------
 #CAM-B3LYP/cc-pVDZ opt(noeigentest,modredundant) nosymm SCRF=(Solvent=
 water) TD(NStates=3,root=1) guess=read geom=(allcheck,modredundant)
 ----------------------------------------------------------------------
 1/11=1,14=-1,18=120,19=15,26=3,29=7,38=1/1,3;
 2/9=110,12=2,15=1,40=1/2;
 3/5=16,11=9,14=-4,16=1,25=1,30=1,70=2201,71=1,72=1,74=-40,116=-2/1,2,8,3;
 4/5=1/1;
 5/5=2,38=6,53=1/2;
 8/6=1,10=1,107=1,108=3/1;
 9/8=1,15=2,41=3,42=1,70=2/14;
 10/5=4,31=1/2;
 6/7=2,8=2,9=2,10=2/1;
 7/12=6,13=5,14=1,30=1/1,2,3,16;
 1/11=1,14=-1,18=20,19=15,26=3/3(2);
 2/9=110,15=1/2;
 99//99;
 2/9=110,15=1/2;
 3/5=16,11=9,14=-2,16=1,25=1,30=1,70=2205,71=1,72=1,74=-40/1,2,8,3;
 4/5=5,16=3,69=1/1;
 5/5=2,38=5,53=1/2;
 8/6=1,10=1,107=1,108=3/1;
 9/8=1,15=2,41=3,42=1,49=4,70=2/14;
 10/5=4,31=1/2;
 7/12=6,13=5,14=1,30=1/1,2,3,16;
 1/11=1,14=-1,18=20,19=15,26=3/3(-8);
 2/9=110,15=1/2;
 6/7=2,8=2,9=2,10=2/1;
 99//99;
 Structure from the checkpoint file:  "Azo90.chk"
 ---------
 Azo90 deg
 ---------
 Charge =  0 Multiplicity = 1
 Redundant internal coordinates found in file.
 C,0,-0.2497002508,-0.2397341446,0.6518487927
 C,0,-0.0885660745,-0.2961669683,2.1067609449
 C,0,1.2117286668,-0.255275299,2.6716947125
 C,0,2.3784278438,-0.1510533825,1.8156424592
 C,0,2.2215431472,-0.0953108062,0.4090742452
 C,0,0.8962658053,-0.142762692,-0.1783399803
 C,0,3.6741276715,-0.1032155817,2.3886170313
 C,0,4.8123555201,0.0047170228,1.5504854311
 C,0,4.6555114141,0.0606111598,0.1439676121
 C,0,3.3597266825,0.0086743996,-0.4310350485
 C,0,5.8190868274,0.1726123041,-0.7145947706
 C,0,5.6708185115,0.2253595407,-2.1247847739
 C,0,4.3300886209,0.1618209019,-2.7193244855
 C,0,3.2003126565,0.0596645035,-1.8647943809
 C,0,1.9100048757,0.0061845785,-2.4556779439
 C,0,0.7308865421,-0.0914504062,-1.5866101833
 C,0,7.1192703472,0.2321644538,-0.1508296244
 C,0,7.2823652554,0.1747453703,1.3036433788
 C,0,6.1390453236,0.0595661157,2.1348949914
 C,0,6.3048555179,-0.0000092136,3.5423516943
 C,0,5.1289762919,-0.1219296659,4.4068295002
 C,0,3.8349870042,-0.1667562888,3.8280420157
 C,0,2.7002204779,-0.276842563,4.6713617655
 C,0,1.3605108164,-0.3152315545,4.0810700311
 C,0,1.7628510309,0.0465146426,-3.837293142
 C,0,2.8882206435,0.1434490679,-4.6811685575
 C,0,4.1713713199,0.2022186764,-4.0996267368
 C,0,8.2287788493,0.3445757008,-0.9958549898
 C,0,8.0765097821,0.3979097125,-2.3712283001
 C,0,6.8096507777,0.3384655069,-2.9284478133
 C,0,2.880663009,-0.3467563468,6.056995639
 C,0,4.1477636233,-0.3073808061,6.6154301476
 C,0,5.2601337447,-0.1946833588,5.7978233808
 C,0,8.5516523265,0.2308879268,1.8898867467
 C,0,8.7060904173,0.1752321037,3.2652582636
 C,0,7.5939084042,0.0603653803,4.0827279077
 C,0,-1.1992376226,-0.390789152,2.9523549882
 C,0,-1.0468116842,-0.4456194109,4.3279056992
 C,0,0.2202398328,-0.4087330969,4.886187229
 C,0,-1.5196277908,-0.2804736488,0.0660847782
 C,0,-1.673843623,-0.2271939602,-1.3091152295
 C,0,-0.5588658224,-0.1335823587,-2.1257499355
 N,0,2.7437295188,0.1593055006,-5.9992650995
 N,0,2.6107774569,0.1738901987,-7.2118095834
 C,0,2.4595935031,1.4466081618,-7.8510762987
 C,0,2.3095882533,1.4058552531,-9.2381107937
 C,0,2.1553679821,2.5778696231,-9.9604084614
 C,0,2.1513411688,3.8051305347,-9.2888657624
 C,0,2.3024203685,3.8473861351,-7.8944365211
 C,0,2.4557712156,2.6725690765,-7.1798664174
 O,0,1.9985145066,4.9197722027,-10.0318546186
 H,0,5.0223775696,0.2778439664,-4.7688197863
 H,0,0.7855440717,0.0034845828,-4.307380847
 H,0,2.316718233,0.4343632344,-9.7346133084
 H,0,2.0365195267,2.5679303264,-11.043751132
 H,0,2.0125433192,5.702291828,-9.4598864622
 H,0,2.5733852615,2.7005120393,-6.0958097574
 H,0,2.2982982605,4.8099306915,-7.3786760203
 H,0,6.7193538343,0.382803046,-4.0107312858
 H,0,8.9525875379,0.4864056978,-3.0147267411
 H,0,9.2339937132,0.3924152676,-0.5848059091
 H,0,6.2425931577,-0.1656646704,6.2622464908
 H,0,4.2694236458,-0.3643893863,7.6977082694
 H,0,2.0251148399,-0.4354757125,6.7217726383
 H,0,7.7444243872,0.0197997345,5.158498938
 H,0,9.7033706012,0.2216355726,3.704318833
 H,0,9.4422244607,0.3200856127,1.2731616853
 H,0,0.3101439671,-0.4522893853,5.9686894239
 H,0,-1.9245282785,-0.5176707305,4.971440445
 H,0,-2.2053592785,-0.4223050646,2.5421203351
 H,0,-0.7091807464,-0.0926278533,-3.2015427552
 H,0,-2.6714927926,-0.2587309192,-1.7484005348
 H,0,-2.4109669779,-0.3545819275,0.683772547
 Recover connectivity data from disk.
 The following ModRedundant input section has been read:
 D      26      43      44      45 F                                           
 

 GradGradGradGradGradGradGradGradGradGradGradGradGradGradGradGradGradGrad
 Berny optimization.
 Initialization pass.
                           ----------------------------
                           !    Initial Parameters    !
                           ! (Angstroms and Degrees)  !
 --------------------------                            --------------------------
 ! Name  Definition              Value          Derivative Info.                !
 --------------------------------------------------------------------------------
 ! R1    R(1,2)                  1.4649         estimate D2E/DX2                !
 ! R2    R(1,6)                  1.4184         estimate D2E/DX2                !
 ! R3    R(1,40)                 1.3991         estimate D2E/DX2                !
 ! R4    R(2,3)                  1.4183         estimate D2E/DX2                !
 ! R5    R(2,37)                 1.3991         estimate D2E/DX2                !
 ! R6    R(3,4)                  1.4508         estimate D2E/DX2                !
 ! R7    R(3,24)                 1.4185         estimate D2E/DX2                !
 ! R8    R(4,5)                  1.4164         estimate D2E/DX2                !
 ! R9    R(4,7)                  1.4175         estimate D2E/DX2                !
 ! R10   R(5,6)                  1.4504         estimate D2E/DX2                !
 ! R11   R(5,10)                 1.4185         estimate D2E/DX2                !
 ! R12   R(6,16)                 1.4189         estimate D2E/DX2                !
 ! R13   R(7,8)                  1.4176         estimate D2E/DX2                !
 ! R14   R(7,22)                 1.4498         estimate D2E/DX2                !
 ! R15   R(8,9)                  1.4163         estimate D2E/DX2                !
 ! R16   R(8,19)                 1.4507         estimate D2E/DX2                !
 ! R17   R(9,10)                 1.4186         estimate D2E/DX2                !
 ! R18   R(9,11)                 1.4504         estimate D2E/DX2                !
 ! R19   R(10,14)                1.4435         estimate D2E/DX2                !
 ! R20   R(11,12)                1.4189         estimate D2E/DX2                !
 ! R21   R(11,17)                1.4184         estimate D2E/DX2                !
 ! R22   R(12,13)                1.468          estimate D2E/DX2                !
 ! R23   R(12,30)                1.3984         estimate D2E/DX2                !
 ! R24   R(13,14)                1.4202         estimate D2E/DX2                !
 ! R25   R(13,27)                1.39           estimate D2E/DX2                !
 ! R26   R(14,15)                1.4202         estimate D2E/DX2                !
 ! R27   R(15,16)                1.468          estimate D2E/DX2                !
 ! R28   R(15,25)                1.39           estimate D2E/DX2                !
 ! R29   R(16,42)                1.3985         estimate D2E/DX2                !
 ! R30   R(17,18)                1.4647         estimate D2E/DX2                !
 ! R31   R(17,28)                1.3992         estimate D2E/DX2                !
 ! R32   R(18,19)                1.4182         estimate D2E/DX2                !
 ! R33   R(18,34)                1.3993         estimate D2E/DX2                !
 ! R34   R(19,20)                1.4184         estimate D2E/DX2                !
 ! R35   R(20,21)                1.4645         estimate D2E/DX2                !
 ! R36   R(20,36)                1.399          estimate D2E/DX2                !
 ! R37   R(21,22)                1.4182         estimate D2E/DX2                !
 ! R38   R(21,33)                1.3991         estimate D2E/DX2                !
 ! R39   R(22,23)                1.4181         estimate D2E/DX2                !
 ! R40   R(23,24)                1.4645         estimate D2E/DX2                !
 ! R41   R(23,31)                1.3991         estimate D2E/DX2                !
 ! R42   R(24,39)                1.399          estimate D2E/DX2                !
 ! R43   R(25,26)                1.41           estimate D2E/DX2                !
 ! R44   R(25,53)                1.0853         estimate D2E/DX2                !
 ! R45   R(26,27)                1.41           estimate D2E/DX2                !
 ! R46   R(26,43)                1.3261         estimate D2E/DX2                !
 ! R47   R(27,52)                1.0852         estimate D2E/DX2                !
 ! R48   R(28,29)                1.3848         estimate D2E/DX2                !
 ! R49   R(28,61)                1.0871         estimate D2E/DX2                !
 ! R50   R(29,30)                1.3853         estimate D2E/DX2                !
 ! R51   R(29,60)                1.0906         estimate D2E/DX2                !
 ! R52   R(30,59)                1.0869         estimate D2E/DX2                !
 ! R53   R(31,32)                1.3853         estimate D2E/DX2                !
 ! R54   R(31,64)                1.0871         estimate D2E/DX2                !
 ! R55   R(32,33)                1.3851         estimate D2E/DX2                !
 ! R56   R(32,63)                1.0906         estimate D2E/DX2                !
 ! R57   R(33,62)                1.0871         estimate D2E/DX2                !
 ! R58   R(34,35)                1.3851         estimate D2E/DX2                !
 ! R59   R(34,67)                1.0869         estimate D2E/DX2                !
 ! R60   R(35,36)                1.3851         estimate D2E/DX2                !
 ! R61   R(35,66)                1.0906         estimate D2E/DX2                !
 ! R62   R(36,65)                1.087          estimate D2E/DX2                !
 ! R63   R(37,38)                1.3851         estimate D2E/DX2                !
 ! R64   R(37,70)                1.087          estimate D2E/DX2                !
 ! R65   R(38,39)                1.3851         estimate D2E/DX2                !
 ! R66   R(38,69)                1.0907         estimate D2E/DX2                !
 ! R67   R(39,68)                1.0871         estimate D2E/DX2                !
 ! R68   R(40,41)                1.3848         estimate D2E/DX2                !
 ! R69   R(40,73)                1.087          estimate D2E/DX2                !
 ! R70   R(41,42)                1.3852         estimate D2E/DX2                !
 ! R71   R(41,72)                1.0905         estimate D2E/DX2                !
 ! R72   R(42,71)                1.087          estimate D2E/DX2                !
 ! R73   R(43,44)                1.2199         estimate D2E/DX2                !
 ! R74   R(44,45)                1.4322         estimate D2E/DX2                !
 ! R75   R(45,46)                1.3957         estimate D2E/DX2                !
 ! R76   R(45,50)                1.3977         estimate D2E/DX2                !
 ! R77   R(46,47)                1.3853         estimate D2E/DX2                !
 ! R78   R(46,54)                1.091          estimate D2E/DX2                !
 ! R79   R(47,48)                1.399          estimate D2E/DX2                !
 ! R80   R(47,55)                1.0899         estimate D2E/DX2                !
 ! R81   R(48,49)                1.4032         estimate D2E/DX2                !
 ! R82   R(48,51)                1.3483         estimate D2E/DX2                !
 ! R83   R(49,50)                1.3836         estimate D2E/DX2                !
 ! R84   R(49,58)                1.092          estimate D2E/DX2                !
 ! R85   R(50,57)                1.0908         estimate D2E/DX2                !
 ! R86   R(51,56)                0.9694         estimate D2E/DX2                !
 ! A1    A(2,1,6)              119.6747         estimate D2E/DX2                !
 ! A2    A(2,1,40)             120.9665         estimate D2E/DX2                !
 ! A3    A(6,1,40)             119.3588         estimate D2E/DX2                !
 ! A4    A(1,2,3)              119.6919         estimate D2E/DX2                !
 ! A5    A(1,2,37)             121.0334         estimate D2E/DX2                !
 ! A6    A(3,2,37)             119.2747         estimate D2E/DX2                !
 ! A7    A(2,3,4)              120.285          estimate D2E/DX2                !
 ! A8    A(2,3,24)             119.3869         estimate D2E/DX2                !
 ! A9    A(4,3,24)             120.3281         estimate D2E/DX2                !
 ! A10   A(3,4,5)              119.9809         estimate D2E/DX2                !
 ! A11   A(3,4,7)              119.9319         estimate D2E/DX2                !
 ! A12   A(5,4,7)              120.0871         estimate D2E/DX2                !
 ! A13   A(4,5,6)              120.14           estimate D2E/DX2                !
 ! A14   A(4,5,10)             120.1434         estimate D2E/DX2                !
 ! A15   A(6,5,10)             119.7166         estimate D2E/DX2                !
 ! A16   A(1,6,5)              120.2265         estimate D2E/DX2                !
 ! A17   A(1,6,16)             119.2899         estimate D2E/DX2                !
 ! A18   A(5,6,16)             120.4836         estimate D2E/DX2                !
 ! A19   A(4,7,8)              119.8342         estimate D2E/DX2                !
 ! A20   A(4,7,22)             120.083          estimate D2E/DX2                !
 ! A21   A(8,7,22)             120.0826         estimate D2E/DX2                !
 ! A22   A(7,8,9)              120.0802         estimate D2E/DX2                !
 ! A23   A(7,8,19)             119.9317         estimate D2E/DX2                !
 ! A24   A(9,8,19)             119.9881         estimate D2E/DX2                !
 ! A25   A(8,9,10)             120.1478         estimate D2E/DX2                !
 ! A26   A(8,9,11)             120.1364         estimate D2E/DX2                !
 ! A27   A(10,9,11)            119.7157         estimate D2E/DX2                !
 ! A28   A(5,10,9)             119.7067         estimate D2E/DX2                !
 ! A29   A(5,10,14)            120.1486         estimate D2E/DX2                !
 ! A30   A(9,10,14)            120.1446         estimate D2E/DX2                !
 ! A31   A(9,11,12)            120.4874         estimate D2E/DX2                !
 ! A32   A(9,11,17)            120.2222         estimate D2E/DX2                !
 ! A33   A(12,11,17)           119.2904         estimate D2E/DX2                !
 ! A34   A(11,12,13)           119.7568         estimate D2E/DX2                !
 ! A35   A(11,12,30)           119.2786         estimate D2E/DX2                !
 ! A36   A(13,12,30)           120.9646         estimate D2E/DX2                !
 ! A37   A(12,13,14)           119.0746         estimate D2E/DX2                !
 ! A38   A(12,13,27)           120.3448         estimate D2E/DX2                !
 ! A39   A(14,13,27)           120.5806         estimate D2E/DX2                !
 ! A40   A(10,14,13)           120.8183         estimate D2E/DX2                !
 ! A41   A(10,14,15)           120.8148         estimate D2E/DX2                !
 ! A42   A(13,14,15)           118.3668         estimate D2E/DX2                !
 ! A43   A(14,15,16)           119.0743         estimate D2E/DX2                !
 ! A44   A(14,15,25)           120.5734         estimate D2E/DX2                !
 ! A45   A(16,15,25)           120.3523         estimate D2E/DX2                !
 ! A46   A(6,16,15)            119.7592         estimate D2E/DX2                !
 ! A47   A(6,16,42)            119.2763         estimate D2E/DX2                !
 ! A48   A(15,16,42)           120.9645         estimate D2E/DX2                !
 ! A49   A(11,17,18)           119.677          estimate D2E/DX2                !
 ! A50   A(11,17,28)           119.3541         estimate D2E/DX2                !
 ! A51   A(18,17,28)           120.9689         estimate D2E/DX2                !
 ! A52   A(17,18,19)           119.6983         estimate D2E/DX2                !
 ! A53   A(17,18,34)           121.029          estimate D2E/DX2                !
 ! A54   A(19,18,34)           119.2727         estimate D2E/DX2                !
 ! A55   A(8,19,18)            120.277          estimate D2E/DX2                !
 ! A56   A(8,19,20)            120.3332         estimate D2E/DX2                !
 ! A57   A(18,19,20)           119.3898         estimate D2E/DX2                !
 ! A58   A(19,20,21)           119.6923         estimate D2E/DX2                !
 ! A59   A(19,20,36)           119.2848         estimate D2E/DX2                !
 ! A60   A(21,20,36)           121.0229         estimate D2E/DX2                !
 ! A61   A(20,21,22)           119.6234         estimate D2E/DX2                !
 ! A62   A(20,21,33)           121.0597         estimate D2E/DX2                !
 ! A63   A(22,21,33)           119.3169         estimate D2E/DX2                !
 ! A64   A(7,22,21)            120.3337         estimate D2E/DX2                !
 ! A65   A(7,22,23)            120.3349         estimate D2E/DX2                !
 ! A66   A(21,22,23)           119.3313         estimate D2E/DX2                !
 ! A67   A(22,23,24)           119.6274         estimate D2E/DX2                !
 ! A68   A(22,23,31)           119.3171         estimate D2E/DX2                !
 ! A69   A(24,23,31)           121.0555         estimate D2E/DX2                !
 ! A70   A(3,24,23)            119.6913         estimate D2E/DX2                !
 ! A71   A(3,24,39)            119.2841         estimate D2E/DX2                !
 ! A72   A(23,24,39)           121.0245         estimate D2E/DX2                !
 ! A73   A(15,25,26)           120.8233         estimate D2E/DX2                !
 ! A74   A(15,25,53)           121.647          estimate D2E/DX2                !
 ! A75   A(26,25,53)           117.5296         estimate D2E/DX2                !
 ! A76   A(25,26,27)           118.84           estimate D2E/DX2                !
 ! A77   A(25,26,43)           120.5812         estimate D2E/DX2                !
 ! A78   A(27,26,43)           120.5715         estimate D2E/DX2                !
 ! A79   A(13,27,26)           120.815          estimate D2E/DX2                !
 ! A80   A(13,27,52)           121.6561         estimate D2E/DX2                !
 ! A81   A(26,27,52)           117.5288         estimate D2E/DX2                !
 ! A82   A(17,28,29)           121.0463         estimate D2E/DX2                !
 ! A83   A(17,28,61)           120.5594         estimate D2E/DX2                !
 ! A84   A(29,28,61)           118.3943         estimate D2E/DX2                !
 ! A85   A(28,29,30)           119.8951         estimate D2E/DX2                !
 ! A86   A(28,29,60)           120.0539         estimate D2E/DX2                !
 ! A87   A(30,29,60)           120.051          estimate D2E/DX2                !
 ! A88   A(12,30,29)           121.1353         estimate D2E/DX2                !
 ! A89   A(12,30,59)           120.522          estimate D2E/DX2                !
 ! A90   A(29,30,59)           118.3427         estimate D2E/DX2                !
 ! A91   A(23,31,32)           121.0511         estimate D2E/DX2                !
 ! A92   A(23,31,64)           120.5453         estimate D2E/DX2                !
 ! A93   A(32,31,64)           118.4035         estimate D2E/DX2                !
 ! A94   A(31,32,33)           119.93           estimate D2E/DX2                !
 ! A95   A(31,32,63)           120.0403         estimate D2E/DX2                !
 ! A96   A(33,32,63)           120.0297         estimate D2E/DX2                !
 ! A97   A(21,33,32)           121.0524         estimate D2E/DX2                !
 ! A98   A(21,33,62)           120.5368         estimate D2E/DX2                !
 ! A99   A(32,33,62)           118.4106         estimate D2E/DX2                !
 ! A100  A(18,34,35)           121.0337         estimate D2E/DX2                !
 ! A101  A(18,34,67)           120.5846         estimate D2E/DX2                !
 ! A102  A(35,34,67)           118.3817         estimate D2E/DX2                !
 ! A103  A(34,35,36)           119.9898         estimate D2E/DX2                !
 ! A104  A(34,35,66)           119.9985         estimate D2E/DX2                !
 ! A105  A(36,35,66)           120.0117         estimate D2E/DX2                !
 ! A106  A(20,36,35)           121.0289         estimate D2E/DX2                !
 ! A107  A(20,36,65)           120.5459         estimate D2E/DX2                !
 ! A108  A(35,36,65)           118.4252         estimate D2E/DX2                !
 ! A109  A(2,37,38)            121.0335         estimate D2E/DX2                !
 ! A110  A(2,37,70)            120.573          estimate D2E/DX2                !
 ! A111  A(38,37,70)           118.3936         estimate D2E/DX2                !
 ! A112  A(37,38,39)           119.9946         estimate D2E/DX2                !
 ! A113  A(37,38,69)           120.0004         estimate D2E/DX2                !
 ! A114  A(39,38,69)           120.0049         estimate D2E/DX2                !
 ! A115  A(24,39,38)           121.0259         estimate D2E/DX2                !
 ! A116  A(24,39,68)           120.553          estimate D2E/DX2                !
 ! A117  A(38,39,68)           118.4211         estimate D2E/DX2                !
 ! A118  A(1,40,41)            121.0451         estimate D2E/DX2                !
 ! A119  A(1,40,73)            120.5558         estimate D2E/DX2                !
 ! A120  A(41,40,73)           118.3991         estimate D2E/DX2                !
 ! A121  A(40,41,42)           119.8938         estimate D2E/DX2                !
 ! A122  A(40,41,72)           120.0511         estimate D2E/DX2                !
 ! A123  A(42,41,72)           120.0551         estimate D2E/DX2                !
 ! A124  A(16,42,41)           121.1359         estimate D2E/DX2                !
 ! A125  A(16,42,71)           120.5249         estimate D2E/DX2                !
 ! A126  A(41,42,71)           118.3391         estimate D2E/DX2                !
 ! A127  A(26,43,44)           179.9985         estimate D2E/DX2                !
 ! A128  A(43,44,45)           117.7605         estimate D2E/DX2                !
 ! A129  A(44,45,46)           115.4016         estimate D2E/DX2                !
 ! A130  A(44,45,50)           124.4289         estimate D2E/DX2                !
 ! A131  A(46,45,50)           120.1695         estimate D2E/DX2                !
 ! A132  A(45,46,47)           120.3587         estimate D2E/DX2                !
 ! A133  A(45,46,54)           118.5248         estimate D2E/DX2                !
 ! A134  A(47,46,54)           121.1165         estimate D2E/DX2                !
 ! A135  A(46,47,48)           119.4863         estimate D2E/DX2                !
 ! A136  A(46,47,55)           121.5126         estimate D2E/DX2                !
 ! A137  A(48,47,55)           119.001          estimate D2E/DX2                !
 ! A138  A(47,48,49)           120.2066         estimate D2E/DX2                !
 ! A139  A(47,48,51)           117.4546         estimate D2E/DX2                !
 ! A140  A(49,48,51)           122.3388         estimate D2E/DX2                !
 ! A141  A(48,49,50)           119.9727         estimate D2E/DX2                !
 ! A142  A(48,49,58)           119.7009         estimate D2E/DX2                !
 ! A143  A(50,49,58)           120.3264         estimate D2E/DX2                !
 ! A144  A(45,50,49)           119.8062         estimate D2E/DX2                !
 ! A145  A(45,50,57)           119.9634         estimate D2E/DX2                !
 ! A146  A(49,50,57)           120.2304         estimate D2E/DX2                !
 ! A147  A(48,51,56)           109.9118         estimate D2E/DX2                !
 ! D1    D(6,1,2,3)             -0.0908         estimate D2E/DX2                !
 ! D2    D(6,1,2,37)           179.9433         estimate D2E/DX2                !
 ! D3    D(40,1,2,3)           179.8897         estimate D2E/DX2                !
 ! D4    D(40,1,2,37)           -0.0762         estimate D2E/DX2                !
 ! D5    D(2,1,6,5)             -0.1961         estimate D2E/DX2                !
 ! D6    D(2,1,6,16)           179.8698         estimate D2E/DX2                !
 ! D7    D(40,1,6,5)           179.8231         estimate D2E/DX2                !
 ! D8    D(40,1,6,16)           -0.111          estimate D2E/DX2                !
 ! D9    D(2,1,40,41)          179.9981         estimate D2E/DX2                !
 ! D10   D(2,1,40,73)            0.024          estimate D2E/DX2                !
 ! D11   D(6,1,40,41)           -0.0213         estimate D2E/DX2                !
 ! D12   D(6,1,40,73)         -179.9955         estimate D2E/DX2                !
 ! D13   D(1,2,3,4)              0.3197         estimate D2E/DX2                !
 ! D14   D(1,2,3,24)          -179.7725         estimate D2E/DX2                !
 ! D15   D(37,2,3,4)          -179.7137         estimate D2E/DX2                !
 ! D16   D(37,2,3,24)            0.1941         estimate D2E/DX2                !
 ! D17   D(1,2,37,38)          179.9287         estimate D2E/DX2                !
 ! D18   D(1,2,37,70)           -0.1154         estimate D2E/DX2                !
 ! D19   D(3,2,37,38)           -0.0374         estimate D2E/DX2                !
 ! D20   D(3,2,37,70)          179.9186         estimate D2E/DX2                !
 ! D21   D(2,3,4,5)             -0.2627         estimate D2E/DX2                !
 ! D22   D(2,3,4,7)            179.647          estimate D2E/DX2                !
 ! D23   D(24,3,4,5)           179.8304         estimate D2E/DX2                !
 ! D24   D(24,3,4,7)            -0.2599         estimate D2E/DX2                !
 ! D25   D(2,3,24,23)          179.8497         estimate D2E/DX2                !
 ! D26   D(2,3,24,39)           -0.228          estimate D2E/DX2                !
 ! D27   D(4,3,24,23)           -0.2426         estimate D2E/DX2                !
 ! D28   D(4,3,24,39)          179.6798         estimate D2E/DX2                !
 ! D29   D(3,4,5,6)             -0.026          estimate D2E/DX2                !
 ! D30   D(3,4,5,10)           179.903          estimate D2E/DX2                !
 ! D31   D(7,4,5,6)           -179.9355         estimate D2E/DX2                !
 ! D32   D(7,4,5,10)            -0.0066         estimate D2E/DX2                !
 ! D33   D(3,4,7,8)           -179.7155         estimate D2E/DX2                !
 ! D34   D(3,4,7,22)             0.3871         estimate D2E/DX2                !
 ! D35   D(5,4,7,8)              0.1941         estimate D2E/DX2                !
 ! D36   D(5,4,7,22)          -179.7033         estimate D2E/DX2                !
 ! D37   D(4,5,6,1)              0.2551         estimate D2E/DX2                !
 ! D38   D(4,5,6,16)          -179.8116         estimate D2E/DX2                !
 ! D39   D(10,5,6,1)          -179.6742         estimate D2E/DX2                !
 ! D40   D(10,5,6,16)            0.2592         estimate D2E/DX2                !
 ! D41   D(4,5,10,9)            -0.1876         estimate D2E/DX2                !
 ! D42   D(4,5,10,14)          179.7318         estimate D2E/DX2                !
 ! D43   D(6,5,10,9)           179.7416         estimate D2E/DX2                !
 ! D44   D(6,5,10,14)           -0.339          estimate D2E/DX2                !
 ! D45   D(1,6,16,15)         -179.8754         estimate D2E/DX2                !
 ! D46   D(1,6,16,42)            0.189          estimate D2E/DX2                !
 ! D47   D(5,6,16,15)            0.1906         estimate D2E/DX2                !
 ! D48   D(5,6,16,42)         -179.745          estimate D2E/DX2                !
 ! D49   D(4,7,8,9)             -0.187          estimate D2E/DX2                !
 ! D50   D(4,7,8,19)           179.7385         estimate D2E/DX2                !
 ! D51   D(22,7,8,9)           179.7104         estimate D2E/DX2                !
 ! D52   D(22,7,8,19)           -0.3641         estimate D2E/DX2                !
 ! D53   D(4,7,22,21)          179.878          estimate D2E/DX2                !
 ! D54   D(4,7,22,23)           -0.0053         estimate D2E/DX2                !
 ! D55   D(8,7,22,21)           -0.0191         estimate D2E/DX2                !
 ! D56   D(8,7,22,23)         -179.9024         estimate D2E/DX2                !
 ! D57   D(7,8,9,10)            -0.0076         estimate D2E/DX2                !
 ! D58   D(7,8,9,11)           179.9279         estimate D2E/DX2                !
 ! D59   D(19,8,9,10)         -179.933          estimate D2E/DX2                !
 ! D60   D(19,8,9,11)            0.0025         estimate D2E/DX2                !
 ! D61   D(7,8,19,18)         -179.662          estimate D2E/DX2                !
 ! D62   D(7,8,19,20)            0.2701         estimate D2E/DX2                !
 ! D63   D(9,8,19,18)            0.2636         estimate D2E/DX2                !
 ! D64   D(9,8,19,20)         -179.8044         estimate D2E/DX2                !
 ! D65   D(8,9,10,5)             0.1947         estimate D2E/DX2                !
 ! D66   D(8,9,10,14)         -179.7247         estimate D2E/DX2                !
 ! D67   D(11,9,10,5)         -179.741          estimate D2E/DX2                !
 ! D68   D(11,9,10,14)           0.3395         estimate D2E/DX2                !
 ! D69   D(8,9,11,12)          179.8202         estimate D2E/DX2                !
 ! D70   D(8,9,11,17)           -0.2533         estimate D2E/DX2                !
 ! D71   D(10,9,11,12)          -0.244          estimate D2E/DX2                !
 ! D72   D(10,9,11,17)         179.6825         estimate D2E/DX2                !
 ! D73   D(5,10,14,13)        -179.9095         estimate D2E/DX2                !
 ! D74   D(5,10,14,15)          -0.0378         estimate D2E/DX2                !
 ! D75   D(9,10,14,13)           0.0096         estimate D2E/DX2                !
 ! D76   D(9,10,14,15)         179.8813         estimate D2E/DX2                !
 ! D77   D(9,11,12,13)          -0.1944         estimate D2E/DX2                !
 ! D78   D(9,11,12,30)         179.761          estimate D2E/DX2                !
 ! D79   D(17,11,12,13)        179.8784         estimate D2E/DX2                !
 ! D80   D(17,11,12,30)         -0.1662         estimate D2E/DX2                !
 ! D81   D(9,11,17,18)           0.2376         estimate D2E/DX2                !
 ! D82   D(9,11,17,28)        -179.7902         estimate D2E/DX2                !
 ! D83   D(12,11,17,18)       -179.835          estimate D2E/DX2                !
 ! D84   D(12,11,17,28)          0.1372         estimate D2E/DX2                !
 ! D85   D(11,12,13,14)          0.5361         estimate D2E/DX2                !
 ! D86   D(11,12,13,27)       -179.5087         estimate D2E/DX2                !
 ! D87   D(30,12,13,14)       -179.4186         estimate D2E/DX2                !
 ! D88   D(30,12,13,27)          0.5367         estimate D2E/DX2                !
 ! D89   D(11,12,30,29)          0.0836         estimate D2E/DX2                !
 ! D90   D(11,12,30,59)       -179.8621         estimate D2E/DX2                !
 ! D91   D(13,12,30,29)       -179.9615         estimate D2E/DX2                !
 ! D92   D(13,12,30,59)          0.0927         estimate D2E/DX2                !
 ! D93   D(12,13,14,10)         -0.4453         estimate D2E/DX2                !
 ! D94   D(12,13,14,15)        179.68           estimate D2E/DX2                !
 ! D95   D(27,13,14,10)        179.5996         estimate D2E/DX2                !
 ! D96   D(27,13,14,15)         -0.2751         estimate D2E/DX2                !
 ! D97   D(12,13,27,26)       -179.9254         estimate D2E/DX2                !
 ! D98   D(12,13,27,52)          0.185          estimate D2E/DX2                !
 ! D99   D(14,13,27,26)          0.0292         estimate D2E/DX2                !
 ! D100  D(14,13,27,52)       -179.8605         estimate D2E/DX2                !
 ! D101  D(10,14,15,16)          0.4844         estimate D2E/DX2                !
 ! D102  D(10,14,15,25)       -179.5608         estimate D2E/DX2                !
 ! D103  D(13,14,15,16)       -179.6408         estimate D2E/DX2                !
 ! D104  D(13,14,15,25)          0.314          estimate D2E/DX2                !
 ! D105  D(14,15,16,6)          -0.5593         estimate D2E/DX2                !
 ! D106  D(14,15,16,42)        179.3752         estimate D2E/DX2                !
 ! D107  D(25,15,16,6)         179.4858         estimate D2E/DX2                !
 ! D108  D(25,15,16,42)         -0.5797         estimate D2E/DX2                !
 ! D109  D(14,15,25,26)         -0.1073         estimate D2E/DX2                !
 ! D110  D(14,15,25,53)        179.7946         estimate D2E/DX2                !
 ! D111  D(16,15,25,26)        179.8469         estimate D2E/DX2                !
 ! D112  D(16,15,25,53)         -0.2512         estimate D2E/DX2                !
 ! D113  D(6,16,42,41)          -0.1381         estimate D2E/DX2                !
 ! D114  D(6,16,42,71)         179.819          estimate D2E/DX2                !
 ! D115  D(15,16,42,41)        179.9271         estimate D2E/DX2                !
 ! D116  D(15,16,42,71)         -0.1158         estimate D2E/DX2                !
 ! D117  D(11,17,18,19)          0.0271         estimate D2E/DX2                !
 ! D118  D(11,17,18,34)        179.9851         estimate D2E/DX2                !
 ! D119  D(28,17,18,19)       -179.9447         estimate D2E/DX2                !
 ! D120  D(28,17,18,34)          0.0134         estimate D2E/DX2                !
 ! D121  D(11,17,28,29)         -0.0243         estimate D2E/DX2                !
 ! D122  D(11,17,28,61)        179.9606         estimate D2E/DX2                !
 ! D123  D(18,17,28,29)        179.9475         estimate D2E/DX2                !
 ! D124  D(18,17,28,61)         -0.0675         estimate D2E/DX2                !
 ! D125  D(17,18,19,8)          -0.2773         estimate D2E/DX2                !
 ! D126  D(17,18,19,20)        179.79           estimate D2E/DX2                !
 ! D127  D(34,18,19,8)         179.7639         estimate D2E/DX2                !
 ! D128  D(34,18,19,20)         -0.1688         estimate D2E/DX2                !
 ! D129  D(17,18,34,35)       -179.9339         estimate D2E/DX2                !
 ! D130  D(17,18,34,67)          0.0993         estimate D2E/DX2                !
 ! D131  D(19,18,34,35)          0.0243         estimate D2E/DX2                !
 ! D132  D(19,18,34,67)       -179.9425         estimate D2E/DX2                !
 ! D133  D(8,19,20,21)           0.2013         estimate D2E/DX2                !
 ! D134  D(8,19,20,36)        -179.7325         estimate D2E/DX2                !
 ! D135  D(18,19,20,21)       -179.8661         estimate D2E/DX2                !
 ! D136  D(18,19,20,36)          0.2001         estimate D2E/DX2                !
 ! D137  D(19,20,21,22)         -0.5806         estimate D2E/DX2                !
 ! D138  D(19,20,21,33)        179.443          estimate D2E/DX2                !
 ! D139  D(36,20,21,22)        179.3521         estimate D2E/DX2                !
 ! D140  D(36,20,21,33)         -0.6243         estimate D2E/DX2                !
 ! D141  D(19,20,36,35)         -0.0883         estimate D2E/DX2                !
 ! D142  D(19,20,36,65)        179.7954         estimate D2E/DX2                !
 ! D143  D(21,20,36,35)        179.9788         estimate D2E/DX2                !
 ! D144  D(21,20,36,65)         -0.1375         estimate D2E/DX2                !
 ! D145  D(20,21,22,7)           0.4897         estimate D2E/DX2                !
 ! D146  D(20,21,22,23)       -179.6259         estimate D2E/DX2                !
 ! D147  D(33,21,22,7)        -179.5335         estimate D2E/DX2                !
 ! D148  D(33,21,22,23)          0.3509         estimate D2E/DX2                !
 ! D149  D(20,21,33,32)        179.8736         estimate D2E/DX2                !
 ! D150  D(20,21,33,62)         -0.241          estimate D2E/DX2                !
 ! D151  D(22,21,33,32)         -0.1029         estimate D2E/DX2                !
 ! D152  D(22,21,33,62)        179.7825         estimate D2E/DX2                !
 ! D153  D(7,22,23,24)          -0.4965         estimate D2E/DX2                !
 ! D154  D(7,22,23,31)         179.5193         estimate D2E/DX2                !
 ! D155  D(21,22,23,24)        179.619          estimate D2E/DX2                !
 ! D156  D(21,22,23,31)         -0.3651         estimate D2E/DX2                !
 ! D157  D(22,23,24,3)           0.6202         estimate D2E/DX2                !
 ! D158  D(22,23,24,39)       -179.3008         estimate D2E/DX2                !
 ! D159  D(31,23,24,3)        -179.3959         estimate D2E/DX2                !
 ! D160  D(31,23,24,39)          0.6831         estimate D2E/DX2                !
 ! D161  D(22,23,31,32)          0.1319         estimate D2E/DX2                !
 ! D162  D(22,23,31,64)       -179.7526         estimate D2E/DX2                !
 ! D163  D(24,23,31,32)       -179.852          estimate D2E/DX2                !
 ! D164  D(24,23,31,64)          0.2634         estimate D2E/DX2                !
 ! D165  D(3,24,39,38)           0.1066         estimate D2E/DX2                !
 ! D166  D(3,24,39,68)        -179.7757         estimate D2E/DX2                !
 ! D167  D(23,24,39,38)       -179.9721         estimate D2E/DX2                !
 ! D168  D(23,24,39,68)          0.1455         estimate D2E/DX2                !
 ! D169  D(15,25,26,27)         -0.143          estimate D2E/DX2                !
 ! D170  D(15,25,26,43)        178.8797         estimate D2E/DX2                !
 ! D171  D(53,25,26,27)        179.9512         estimate D2E/DX2                !
 ! D172  D(53,25,26,43)         -1.0261         estimate D2E/DX2                !
 ! D173  D(25,26,27,13)          0.1821         estimate D2E/DX2                !
 ! D174  D(25,26,27,52)       -179.9238         estimate D2E/DX2                !
 ! D175  D(43,26,27,13)       -178.8406         estimate D2E/DX2                !
 ! D176  D(43,26,27,52)          1.0534         estimate D2E/DX2                !
 ! D177  D(25,26,43,44)          0.5281         estimate D2E/DX2                !
 ! D178  D(27,26,43,44)        179.5337         estimate D2E/DX2                !
 ! D179  D(17,28,29,30)         -0.0604         estimate D2E/DX2                !
 ! D180  D(17,28,29,60)        179.9498         estimate D2E/DX2                !
 ! D181  D(61,28,29,30)        179.9543         estimate D2E/DX2                !
 ! D182  D(61,28,29,60)         -0.0355         estimate D2E/DX2                !
 ! D183  D(28,29,30,12)          0.0302         estimate D2E/DX2                !
 ! D184  D(28,29,30,59)        179.9771         estimate D2E/DX2                !
 ! D185  D(60,29,30,12)       -179.98           estimate D2E/DX2                !
 ! D186  D(60,29,30,59)         -0.0331         estimate D2E/DX2                !
 ! D187  D(23,31,32,33)          0.1193         estimate D2E/DX2                !
 ! D188  D(23,31,32,63)       -179.9207         estimate D2E/DX2                !
 ! D189  D(64,31,32,33)       -179.9937         estimate D2E/DX2                !
 ! D190  D(64,31,32,63)         -0.0338         estimate D2E/DX2                !
 ! D191  D(31,32,33,21)         -0.1341         estimate D2E/DX2                !
 ! D192  D(31,32,33,62)        179.9781         estimate D2E/DX2                !
 ! D193  D(63,32,33,21)        179.906          estimate D2E/DX2                !
 ! D194  D(63,32,33,62)          0.0182         estimate D2E/DX2                !
 ! D195  D(18,34,35,36)          0.0898         estimate D2E/DX2                !
 ! D196  D(18,34,35,66)       -179.9239         estimate D2E/DX2                !
 ! D197  D(67,34,35,36)       -179.9427         estimate D2E/DX2                !
 ! D198  D(67,34,35,66)          0.0436         estimate D2E/DX2                !
 ! D199  D(34,35,36,20)         -0.0573         estimate D2E/DX2                !
 ! D200  D(34,35,36,65)       -179.9434         estimate D2E/DX2                !
 ! D201  D(66,35,36,20)        179.9564         estimate D2E/DX2                !
 ! D202  D(66,35,36,65)          0.0703         estimate D2E/DX2                !
 ! D203  D(2,37,38,39)          -0.0866         estimate D2E/DX2                !
 ! D204  D(2,37,38,69)         179.9031         estimate D2E/DX2                !
 ! D205  D(70,37,38,39)        179.9565         estimate D2E/DX2                !
 ! D206  D(70,37,38,69)         -0.0538         estimate D2E/DX2                !
 ! D207  D(37,38,39,24)          0.0514         estimate D2E/DX2                !
 ! D208  D(37,38,39,68)        179.9362         estimate D2E/DX2                !
 ! D209  D(69,38,39,24)       -179.9384         estimate D2E/DX2                !
 ! D210  D(69,38,39,68)         -0.0535         estimate D2E/DX2                !
 ! D211  D(1,40,41,42)           0.0754         estimate D2E/DX2                !
 ! D212  D(1,40,41,72)        -179.9152         estimate D2E/DX2                !
 ! D213  D(73,40,41,42)       -179.9499         estimate D2E/DX2                !
 ! D214  D(73,40,41,72)          0.0595         estimate D2E/DX2                !
 ! D215  D(40,41,42,16)          0.0058         estimate D2E/DX2                !
 ! D216  D(40,41,42,71)       -179.9523         estimate D2E/DX2                !
 ! D217  D(72,41,42,16)        179.9963         estimate D2E/DX2                !
 ! D218  D(72,41,42,71)          0.0383         estimate D2E/DX2                !
 ! D219  D(26,43,44,45)         90.0            Frozen                          !
 ! D220  D(43,44,45,46)       -179.9277         estimate D2E/DX2                !
 ! D221  D(43,44,45,50)          0.0831         estimate D2E/DX2                !
 ! D222  D(44,45,46,47)        179.9858         estimate D2E/DX2                !
 ! D223  D(44,45,46,54)         -0.002          estimate D2E/DX2                !
 ! D224  D(50,45,46,47)         -0.0246         estimate D2E/DX2                !
 ! D225  D(50,45,46,54)        179.9877         estimate D2E/DX2                !
 ! D226  D(44,45,50,49)       -179.9962         estimate D2E/DX2                !
 ! D227  D(44,45,50,57)         -0.0036         estimate D2E/DX2                !
 ! D228  D(46,45,50,49)          0.0151         estimate D2E/DX2                !
 ! D229  D(46,45,50,57)       -179.9923         estimate D2E/DX2                !
 ! D230  D(45,46,47,48)          0.017          estimate D2E/DX2                !
 ! D231  D(45,46,47,55)       -179.9822         estimate D2E/DX2                !
 ! D232  D(54,46,47,48)       -179.9955         estimate D2E/DX2                !
 ! D233  D(54,46,47,55)          0.0053         estimate D2E/DX2                !
 ! D234  D(46,47,48,49)         -0.0003         estimate D2E/DX2                !
 ! D235  D(46,47,48,51)        179.9988         estimate D2E/DX2                !
 ! D236  D(55,47,48,49)        179.9989         estimate D2E/DX2                !
 ! D237  D(55,47,48,51)         -0.002          estimate D2E/DX2                !
 ! D238  D(47,48,49,50)         -0.009          estimate D2E/DX2                !
 ! D239  D(47,48,49,58)        179.9855         estimate D2E/DX2                !
 ! D240  D(51,48,49,50)        179.992          estimate D2E/DX2                !
 ! D241  D(51,48,49,58)         -0.0135         estimate D2E/DX2                !
 ! D242  D(47,48,51,56)       -179.9537         estimate D2E/DX2                !
 ! D243  D(49,48,51,56)          0.0454         estimate D2E/DX2                !
 ! D244  D(48,49,50,45)          0.0015         estimate D2E/DX2                !
 ! D245  D(48,49,50,57)       -179.991          estimate D2E/DX2                !
 ! D246  D(58,49,50,45)       -179.9929         estimate D2E/DX2                !
 ! D247  D(58,49,50,57)          0.0145         estimate D2E/DX2                !
 --------------------------------------------------------------------------------
 Trust Radius=3.00D-01 FncErr=1.00D-07 GrdErr=1.00D-06
 Number of steps in this run=    438 maximum allowed number of steps=    438.
 GradGradGradGradGradGradGradGradGradGradGradGradGradGradGradGradGradGrad

 Symmetry turned off by external request.
 Stoichiometry    C48H22N2O
 Framework group  C1[X(C48H22N2O)]
 Deg. of freedom   213
 Full point group                 C1      NOp   1
                          Input orientation:                          
 ---------------------------------------------------------------------
 Center     Atomic      Atomic             Coordinates (Angstroms)
 Number     Number       Type             X           Y           Z
 ---------------------------------------------------------------------
      1          6           0       -0.249700   -0.239734    0.651849
      2          6           0       -0.088566   -0.296167    2.106761
      3          6           0        1.211729   -0.255275    2.671695
      4          6           0        2.378428   -0.151053    1.815642
      5          6           0        2.221543   -0.095311    0.409074
      6          6           0        0.896266   -0.142763   -0.178340
      7          6           0        3.674128   -0.103216    2.388617
      8          6           0        4.812356    0.004717    1.550485
      9          6           0        4.655511    0.060611    0.143968
     10          6           0        3.359727    0.008674   -0.431035
     11          6           0        5.819087    0.172612   -0.714595
     12          6           0        5.670819    0.225360   -2.124785
     13          6           0        4.330089    0.161821   -2.719324
     14          6           0        3.200313    0.059665   -1.864794
     15          6           0        1.910005    0.006185   -2.455678
     16          6           0        0.730887   -0.091450   -1.586610
     17          6           0        7.119270    0.232164   -0.150830
     18          6           0        7.282365    0.174745    1.303643
     19          6           0        6.139045    0.059566    2.134895
     20          6           0        6.304856   -0.000009    3.542352
     21          6           0        5.128976   -0.121930    4.406830
     22          6           0        3.834987   -0.166756    3.828042
     23          6           0        2.700220   -0.276843    4.671362
     24          6           0        1.360511   -0.315232    4.081070
     25          6           0        1.762851    0.046515   -3.837293
     26          6           0        2.888221    0.143449   -4.681169
     27          6           0        4.171371    0.202219   -4.099627
     28          6           0        8.228779    0.344576   -0.995855
     29          6           0        8.076510    0.397910   -2.371228
     30          6           0        6.809651    0.338466   -2.928448
     31          6           0        2.880663   -0.346756    6.056996
     32          6           0        4.147764   -0.307381    6.615430
     33          6           0        5.260134   -0.194683    5.797823
     34          6           0        8.551652    0.230888    1.889887
     35          6           0        8.706090    0.175232    3.265258
     36          6           0        7.593908    0.060365    4.082728
     37          6           0       -1.199238   -0.390789    2.952355
     38          6           0       -1.046812   -0.445619    4.327906
     39          6           0        0.220240   -0.408733    4.886187
     40          6           0       -1.519628   -0.280474    0.066085
     41          6           0       -1.673844   -0.227194   -1.309115
     42          6           0       -0.558866   -0.133582   -2.125750
     43          7           0        2.743730    0.159306   -5.999265
     44          7           0        2.610777    0.173890   -7.211810
     45          6           0        2.459594    1.446608   -7.851076
     46          6           0        2.309588    1.405855   -9.238111
     47          6           0        2.155368    2.577870   -9.960408
     48          6           0        2.151341    3.805131   -9.288866
     49          6           0        2.302420    3.847386   -7.894437
     50          6           0        2.455771    2.672569   -7.179866
     51          8           0        1.998515    4.919772  -10.031855
     52          1           0        5.022378    0.277844   -4.768820
     53          1           0        0.785544    0.003485   -4.307381
     54          1           0        2.316718    0.434363   -9.734613
     55          1           0        2.036520    2.567930  -11.043751
     56          1           0        2.012543    5.702292   -9.459886
     57          1           0        2.573385    2.700512   -6.095810
     58          1           0        2.298298    4.809931   -7.378676
     59          1           0        6.719354    0.382803   -4.010731
     60          1           0        8.952588    0.486406   -3.014727
     61          1           0        9.233994    0.392415   -0.584806
     62          1           0        6.242593   -0.165665    6.262246
     63          1           0        4.269424   -0.364389    7.697708
     64          1           0        2.025115   -0.435476    6.721773
     65          1           0        7.744424    0.019800    5.158499
     66          1           0        9.703371    0.221636    3.704319
     67          1           0        9.442224    0.320086    1.273162
     68          1           0        0.310144   -0.452289    5.968689
     69          1           0       -1.924528   -0.517671    4.971440
     70          1           0       -2.205359   -0.422305    2.542120
     71          1           0       -0.709181   -0.092628   -3.201543
     72          1           0       -2.671493   -0.258731   -1.748401
     73          1           0       -2.410967   -0.354582    0.683773
 ---------------------------------------------------------------------
 Rotational constants (GHZ):      0.0969628      0.0347183      0.0266708
 Standard basis: CC-pVDZ (5D, 7F)
   824 basis functions,  1837 primitive gaussians,   875 cartesian basis functions
   166 alpha electrons      166 beta electrons
       nuclear repulsion energy      5744.6668063315 Hartrees.
 NAtoms=   73 NActive=   73 NUniq=   73 SFac= 1.00D+00 NAtFMM=   60 NAOKFM=T Big=T
 Integral buffers will be    131072 words long.
 Raffenetti 1 integral format.
 Two-electron integral symmetry is turned off.
 ------------------------------------------------------------------------------
 Polarizable Continuum Model (PCM)
 =================================
 Model                : PCM (using non-symmetric T matrix).
 Atomic radii         : UFF (Universal Force Field).
 Polarization charges : Total charges.
 Charge compensation  : None.
 Solution method      : On-the-fly selection.
 Cavity type          : Scaled VdW (van der Waals Surface) (Alpha=1.100).
 Cavity algorithm     : GePol (No added spheres)
                        Default sphere list used, NSphG=   73.
                        Lebedev-Laikov grids with approx.  5.0 points / Ang**2.
                        Smoothing algorithm: Karplus/York (Gamma=1.0000).
                        Polarization charges: spherical gaussians, with
                                              point-specific exponents (IZeta= 3).
                        Self-potential: point-specific (ISelfS= 7).
                        Self-field    : sphere-specific E.n sum rule (ISelfD= 2).
 1st derivatives      : Analytical E(r).r(x)/FMM algorithm (CHGder, D1EAlg=3).
                        Cavity 1st derivative terms included.
 Solvent              : Water, Eps=  78.355300 Eps(inf)=   1.777849
 ------------------------------------------------------------------------------
 One-electron integrals computed using PRISM.
 NBasis=   824 RedAO= T EigKep=  1.32D-05  NBF=   824
 NBsUse=   824 1.00D-06 EigRej= -1.00D+00 NBFU=   824
 Initial guess from the checkpoint file:  "Azo90.chk"
 B after Tr=     6.229579    0.797826   -1.452241
         Rot=   -0.504462   -0.431566    0.462391    0.587762 Ang=-240.59 deg.
 Requested convergence on RMS density matrix=1.00D-08 within 128 cycles.
 Requested convergence on MAX density matrix=1.00D-06.
 Requested convergence on             energy=1.00D-06.
 No special actions if energy rises.
 Inv3:  Mode=1 IEnd=    81463563.
 Iteration    1 A*A^-1 deviation from unit magnitude is 9.10D-15 for    253.
 Iteration    1 A*A^-1 deviation from orthogonality  is 7.90D-15 for   5205   5120.
 Iteration    1 A^-1*A deviation from unit magnitude is 9.10D-15 for   5203.
 Iteration    1 A^-1*A deviation from orthogonality  is 1.03D-09 for   3803   3799.
 Iteration    2 A*A^-1 deviation from unit magnitude is 1.45D-14 for    516.
 Iteration    2 A*A^-1 deviation from orthogonality  is 1.25D-14 for   3315    252.
 Iteration    2 A^-1*A deviation from unit magnitude is 1.11D-15 for   1032.
 Iteration    2 A^-1*A deviation from orthogonality  is 8.33D-16 for   5211   2762.
 Error on total polarization charges =  0.02011
 SCF Done:  E(RCAM-B3LYP) =  -2026.21131478     A.U. after    9 cycles
            NFock=  9  Conv=0.89D-08     -V/T= 2.0060
 DoSCS=F DFT=T ScalE2(SS,OS)=  1.000000  1.000000
 ExpMin= 1.22D-01 ExpMax= 1.17D+04 ExpMxC= 4.01D+02 IAcc=3 IRadAn=         5 AccDes= 0.00D+00
 HarFok:  IExCor=  205 AccDes= 0.00D+00 IRadAn=         5 IDoV=-2 UseB2=F ITyADJ=14
 ICtDFT= 12500011 ScaDFX=  1.000000  1.000000  1.000000  1.000000
 Range of M.O.s used for correlation:    52   824
 NBasis=   824 NAE=   166 NBE=   166 NFC=    51 NFV=     0
 NROrb=    773 NOA=   115 NOB=   115 NVA=   658 NVB=   658

 **** Warning!!: The largest alpha MO coefficient is  0.43120251D+02

 Would need an additional        340683400000 words for in-memory AO integral storage.
 NEqPCM:  Using equilibrium solvation (IEInf=0, Eps=  78.3553, EpsInf=   1.7778)
    12 initial guesses have been made.
 Convergence on wavefunction:    0.000001000000000
 Iteration     1 Dimension    12 NMult     0 NNew     12
 CISAX will form    12 AO SS matrices at one time.
 Iteration     2 Dimension    18 NMult    12 NNew      6
 Iteration     3 Dimension    24 NMult    18 NNew      6
 Iteration     4 Dimension    30 NMult    24 NNew      6
 Iteration     5 Dimension    36 NMult    30 NNew      6
 Iteration     6 Dimension    42 NMult    36 NNew      6
 Iteration     7 Dimension    48 NMult    42 NNew      6
 Iteration     8 Dimension    54 NMult    48 NNew      6
 Iteration     9 Dimension    60 NMult    54 NNew      6
 Iteration    10 Dimension    66 NMult    60 NNew      6
 Iteration    11 Dimension    70 NMult    66 NNew      4
 Iteration    12 Dimension    74 NMult    70 NNew      4
 Iteration    13 Dimension    78 NMult    74 NNew      4
 Iteration    14 Dimension    82 NMult    78 NNew      4
 Iteration    15 Dimension    84 NMult    82 NNew      2
 ***********************************************************************
 Excited states from <AA,BB:AA,BB> singles matrix:
 ***********************************************************************
 
 Ground to excited state transition densities written to RWF  633
 Ground to excited state transition electric dipole moments (Au):
       state          X           Y           Z        Dip. S.      Osc.
         1         0.0934      0.0059     -0.0082      0.0088      0.0003
         2        -1.8270     -0.1174      0.1988      3.3912      0.2447
         3        -0.4489      0.5603     -3.7763     14.7757      1.1524
 Ground to excited state transition velocity dipole moments (Au):
       state          X           Y           Z        Dip. S.      Osc.
         1        -0.0130     -0.0008      0.0013      0.0002      0.0022
         2         0.1978      0.0127     -0.0215      0.0397      0.2447
         3         0.0520     -0.0649      0.4371      0.1979      1.1280
 Ground to excited state transition magnetic dipole moments (Au):
       state          X           Y           Z
         1        -0.1217      0.3287     -0.9284
         2        -0.0329      0.6943      0.1031
         3        -0.7017     -2.8577     -0.3418
 Ground to excited state transition velocity quadrupole moments (Au):
       state          XX          YY          ZZ          XY          XZ          YZ
         1        -0.1322      0.0017     -0.0368      0.0092      0.1800      0.0096
         2         2.4335      0.0026      0.1103      0.0979     -0.6403     -0.0352
         3         1.3298     -0.4117     -2.4123     -0.2487      2.4180      0.8950
 <0|del|b> * <b|rxdel|0> + <0|del|b> * <b|delr+rdel|0>
 Rotatory Strengths (R) in cgs (10**-40 erg-esu-cm/Gauss)
       state          XX          YY          ZZ    R(velocity)    E-M Angle
         1        -9.1356      1.5039      8.7874      0.3852       90.00
         2        41.3239    -44.3396      3.6951      0.2265       89.96
         3       254.6956    -92.7267   -164.5029     -0.8447       90.02
 1/2[<0|r|b>*<b|rxdel|0> + (<0|rxdel|b>*<b|r|0>)*]
 Rotatory Strengths (R) in cgs (10**-40 erg-esu-cm/Gauss)
       state          XX          YY          ZZ     R(length)
         1         8.0444     -1.3705     -5.4075      0.4222
         2       -42.5279     57.6519    -14.4945      0.2098
         3      -222.7529   1132.2303   -912.8727     -1.1318
  1/2[<0|del|b>*<b|r|0> + (<0|r|b>*<b|del|0>)*] (Au)
       state          X           Y           Z        Dip. S.   Osc.(frdel)
         1        -0.0012      0.0000      0.0000      0.0012      0.0008
         2        -0.3613     -0.0015     -0.0043      0.3671      0.2447
         3        -0.0233     -0.0364     -1.6505      1.7102      1.1401

 Excitation energies and oscillator strengths:
 
 Excited state symmetry could not be determined.
 Excited State   1:      Singlet-?Sym    1.4133 eV  877.26 nm  f=0.0003  <S**2>=0.000
     155 ->167        -0.12889
     164 ->167         0.29982
     166 ->167         0.60501
     166 ->178         0.11457
 This state for optimization and/or second-order correction.
 Total Energy, E(TD-HF/TD-KS) =  -2026.15937664    
 Copying the excited state density for this state as the 1-particle RhoCI density.
 
 Excited state symmetry could not be determined.
 Excited State   2:      Singlet-?Sym    2.9458 eV  420.88 nm  f=0.2447  <S**2>=0.000
     165 ->169        -0.16331
     166 ->168         0.59799
     166 ->170        -0.27893
 
 Excited state symmetry could not be determined.
 Excited State   3:      Singlet-?Sym    3.1834 eV  389.47 nm  f=1.1524  <S**2>=0.000
     162 ->167        -0.11121
     164 ->169        -0.10693
     165 ->168         0.13098
     166 ->169         0.64985
 SavETr:  write IOETrn=   770 NScale= 10 NData=  16 NLR=1 NState=    3 LETran=      64.
          IDoAtm=11111111111111111111111111111111111111111111111111
          IDoAtm=11111111111111111111111
 NEqPCM:  Using equilibrium solvation (IEInf=0, Eps=  78.3553, EpsInf=   1.7778)
          Differentiating once with respect to electric field.
                with respect to dipole field.
          Differentiating once with respect to nuclear coordinates.
          There are     1 degrees of freedom in the 1st order CPHF.  IDoFFX=0 NUNeed=     1.
 LinEq1:  Iter=  0 NonCon=     1 RMS=1.19D-03 Max=7.98D-02 NDo=     1
 AX will form     1 AO Fock derivatives at one time.
 LinEq1:  Iter=  1 NonCon=     1 RMS=6.54D-04 Max=4.85D-02 NDo=     1
 LinEq1:  Iter=  2 NonCon=     1 RMS=5.08D-04 Max=5.09D-02 NDo=     1
 LinEq1:  Iter=  3 NonCon=     1 RMS=2.41D-04 Max=3.27D-02 NDo=     1
 LinEq1:  Iter=  4 NonCon=     1 RMS=1.46D-04 Max=1.30D-02 NDo=     1
 LinEq1:  Iter=  5 NonCon=     1 RMS=5.85D-05 Max=5.78D-03 NDo=     1
 LinEq1:  Iter=  6 NonCon=     1 RMS=3.39D-05 Max=3.55D-03 NDo=     1
 LinEq1:  Iter=  7 NonCon=     1 RMS=1.72D-05 Max=1.63D-03 NDo=     1
 LinEq1:  Iter=  8 NonCon=     1 RMS=8.62D-06 Max=8.58D-04 NDo=     1
 LinEq1:  Iter=  9 NonCon=     1 RMS=4.10D-06 Max=3.56D-04 NDo=     1
 LinEq1:  Iter= 10 NonCon=     1 RMS=2.24D-06 Max=2.22D-04 NDo=     1
 LinEq1:  Iter= 11 NonCon=     1 RMS=1.03D-06 Max=8.61D-05 NDo=     1
 LinEq1:  Iter= 12 NonCon=     1 RMS=4.62D-07 Max=4.62D-05 NDo=     1
 LinEq1:  Iter= 13 NonCon=     1 RMS=2.37D-07 Max=1.43D-05 NDo=     1
 LinEq1:  Iter= 14 NonCon=     1 RMS=1.21D-07 Max=1.22D-05 NDo=     1
 LinEq1:  Iter= 15 NonCon=     1 RMS=5.84D-08 Max=4.17D-06 NDo=     1
 LinEq1:  Iter= 16 NonCon=     1 RMS=2.20D-08 Max=1.51D-06 NDo=     1
 LinEq1:  Iter= 17 NonCon=     1 RMS=1.02D-08 Max=6.11D-07 NDo=     1
 LinEq1:  Iter= 18 NonCon=     1 RMS=5.25D-09 Max=4.81D-07 NDo=     1
 LinEq1:  Iter= 19 NonCon=     1 RMS=2.30D-09 Max=1.97D-07 NDo=     1
 LinEq1:  Iter= 20 NonCon=     1 RMS=1.28D-09 Max=1.71D-07 NDo=     1
 LinEq1:  Iter= 21 NonCon=     1 RMS=7.53D-10 Max=1.21D-07 NDo=     1
 LinEq1:  Iter= 22 NonCon=     1 RMS=3.30D-10 Max=3.74D-08 NDo=     1
 LinEq1:  Iter= 23 NonCon=     1 RMS=1.94D-10 Max=1.53D-08 NDo=     1
 LinEq1:  Iter= 24 NonCon=     1 RMS=6.48D-11 Max=3.21D-09 NDo=     1
 LinEq1:  Iter= 25 NonCon=     1 RMS=2.78D-11 Max=1.80D-09 NDo=     1
 LinEq1:  Iter= 26 NonCon=     1 RMS=1.47D-11 Max=1.07D-09 NDo=     1
 LinEq1:  Iter= 27 NonCon=     0 RMS=5.50D-12 Max=2.70D-10 NDo=     1
 Linear equations converged to 1.000D-10 1.000D-09 after    27 iterations.
 End of Minotr F.D. properties file   721 does not exist.
 End of Minotr F.D. properties file   722 does not exist.
 End of Minotr F.D. properties file   788 does not exist.

 **********************************************************************

            Population analysis using the SCF density.

 **********************************************************************

 Alpha  occ. eigenvalues --  -19.25806 -14.50265 -14.47057 -10.34492 -10.34233
 Alpha  occ. eigenvalues --  -10.29727 -10.28626 -10.28466 -10.28402 -10.28402
 Alpha  occ. eigenvalues --  -10.28379 -10.28378 -10.28275 -10.28226 -10.28224
 Alpha  occ. eigenvalues --  -10.28204 -10.28203 -10.28196 -10.28169 -10.28169
 Alpha  occ. eigenvalues --  -10.28152 -10.28152 -10.28115 -10.28114 -10.28107
 Alpha  occ. eigenvalues --  -10.28079 -10.28070 -10.28066 -10.28065 -10.28031
 Alpha  occ. eigenvalues --  -10.28027 -10.27792 -10.27298 -10.26895 -10.26895
 Alpha  occ. eigenvalues --  -10.26886 -10.26863 -10.26863 -10.26833 -10.26802
 Alpha  occ. eigenvalues --  -10.26801 -10.26774 -10.26773 -10.26771 -10.26768
 Alpha  occ. eigenvalues --  -10.26768 -10.26757 -10.26757 -10.26748 -10.26308
 Alpha  occ. eigenvalues --  -10.26308  -1.16063  -1.15162  -1.00680  -0.98766
 Alpha  occ. eigenvalues --   -0.98323  -0.97234  -0.95514  -0.95497  -0.94794
 Alpha  occ. eigenvalues --   -0.93880  -0.91900  -0.89991  -0.89943  -0.89128
 Alpha  occ. eigenvalues --   -0.87903  -0.86935  -0.85135  -0.84752  -0.84105
 Alpha  occ. eigenvalues --   -0.84030  -0.83490  -0.83210  -0.82649  -0.80226
 Alpha  occ. eigenvalues --   -0.79451  -0.79147  -0.77373  -0.74177  -0.73244
 Alpha  occ. eigenvalues --   -0.72718  -0.72644  -0.71777  -0.71485  -0.71189
 Alpha  occ. eigenvalues --   -0.70279  -0.69225  -0.68750  -0.66543  -0.66237
 Alpha  occ. eigenvalues --   -0.64855  -0.63818  -0.63093  -0.62620  -0.62185
 Alpha  occ. eigenvalues --   -0.61878  -0.60775  -0.60089  -0.59118  -0.58642
 Alpha  occ. eigenvalues --   -0.57797  -0.57168  -0.56818  -0.56397  -0.54983
 Alpha  occ. eigenvalues --   -0.54966  -0.53907  -0.53379  -0.52551  -0.52495
 Alpha  occ. eigenvalues --   -0.52083  -0.52015  -0.51986  -0.51414  -0.50919
 Alpha  occ. eigenvalues --   -0.50824  -0.50468  -0.50462  -0.49860  -0.49546
 Alpha  occ. eigenvalues --   -0.49070  -0.48967  -0.48955  -0.48914  -0.48794
 Alpha  occ. eigenvalues --   -0.48773  -0.48440  -0.47880  -0.47795  -0.46576
 Alpha  occ. eigenvalues --   -0.46232  -0.45337  -0.44991  -0.44729  -0.44411
 Alpha  occ. eigenvalues --   -0.44126  -0.44114  -0.44076  -0.44002  -0.42573
 Alpha  occ. eigenvalues --   -0.42318  -0.41875  -0.41567  -0.41037  -0.40624
 Alpha  occ. eigenvalues --   -0.40264  -0.39871  -0.38798  -0.38694  -0.38331
 Alpha  occ. eigenvalues --   -0.37605  -0.37293  -0.36648  -0.36073  -0.33293
 Alpha  occ. eigenvalues --   -0.33008  -0.31498  -0.31257  -0.31050  -0.31004
 Alpha  occ. eigenvalues --   -0.30705  -0.29058  -0.26529  -0.25974  -0.24647
 Alpha  occ. eigenvalues --   -0.22007
 Alpha virt. eigenvalues --   -0.03796  -0.03454  -0.03121  -0.02503   0.00960
 Alpha virt. eigenvalues --    0.01474   0.01721   0.02549   0.02990   0.03263
 Alpha virt. eigenvalues --    0.04796   0.07510   0.07862   0.08209   0.10354
 Alpha virt. eigenvalues --    0.10605   0.11204   0.11219   0.11661   0.11676
 Alpha virt. eigenvalues --    0.12270   0.12396   0.12412   0.12614   0.13795
 Alpha virt. eigenvalues --    0.14291   0.14786   0.15743   0.16104   0.16917
 Alpha virt. eigenvalues --    0.17470   0.17715   0.18038   0.19179   0.20086
 Alpha virt. eigenvalues --    0.20303   0.21707   0.22117   0.22228   0.22742
 Alpha virt. eigenvalues --    0.23773   0.23804   0.25172   0.26066   0.26515
 Alpha virt. eigenvalues --    0.26561   0.26709   0.26729   0.27514   0.27588
 Alpha virt. eigenvalues --    0.28488   0.28707   0.28828   0.28856   0.29104
 Alpha virt. eigenvalues --    0.29381   0.29918   0.30073   0.30243   0.30542
 Alpha virt. eigenvalues --    0.30568   0.30723   0.31297   0.32061   0.32422
 Alpha virt. eigenvalues --    0.34216   0.34288   0.35034   0.35385   0.35453
 Alpha virt. eigenvalues --    0.36501   0.37146   0.37869   0.38001   0.38966
 Alpha virt. eigenvalues --    0.38993   0.39877   0.40848   0.41193   0.41223
 Alpha virt. eigenvalues --    0.42403   0.43589   0.44374   0.44736   0.44983
 Alpha virt. eigenvalues --    0.46584   0.46966   0.47538   0.47606   0.47880
 Alpha virt. eigenvalues --    0.48300   0.48971   0.49190   0.49306   0.49439
 Alpha virt. eigenvalues --    0.49865   0.50007   0.50464   0.50467   0.50529
 Alpha virt. eigenvalues --    0.51026   0.51062   0.51189   0.51634   0.52314
 Alpha virt. eigenvalues --    0.52521   0.52715   0.52837   0.52897   0.53082
 Alpha virt. eigenvalues --    0.53405   0.53565   0.53731   0.53860   0.54070
 Alpha virt. eigenvalues --    0.54119   0.54175   0.54388   0.54602   0.54746
 Alpha virt. eigenvalues --    0.54788   0.54896   0.55205   0.55211   0.55308
 Alpha virt. eigenvalues --    0.55627   0.55641   0.55755   0.56018   0.56190
 Alpha virt. eigenvalues --    0.56366   0.56760   0.57033   0.57212   0.57217
 Alpha virt. eigenvalues --    0.57440   0.57571   0.57623   0.57771   0.57826
 Alpha virt. eigenvalues --    0.58550   0.58659   0.58754   0.58774   0.59084
 Alpha virt. eigenvalues --    0.59095   0.59387   0.59458   0.59608   0.59889
 Alpha virt. eigenvalues --    0.60320   0.60473   0.60661   0.60964   0.61456
 Alpha virt. eigenvalues --    0.61661   0.61742   0.61784   0.62230   0.62502
 Alpha virt. eigenvalues --    0.62737   0.62819   0.63209   0.63790   0.64007
 Alpha virt. eigenvalues --    0.65097   0.65278   0.65521   0.66417   0.66497
 Alpha virt. eigenvalues --    0.66554   0.66590   0.66696   0.67150   0.67819
 Alpha virt. eigenvalues --    0.69972   0.70465   0.70707   0.70856   0.71237
 Alpha virt. eigenvalues --    0.71632   0.71946   0.72141   0.72310   0.72608
 Alpha virt. eigenvalues --    0.73160   0.73458   0.73558   0.73618   0.73796
 Alpha virt. eigenvalues --    0.75092   0.75299   0.75472   0.75643   0.75988
 Alpha virt. eigenvalues --    0.76135   0.76341   0.76606   0.76784   0.76912
 Alpha virt. eigenvalues --    0.77093   0.77569   0.77866   0.78051   0.78436
 Alpha virt. eigenvalues --    0.78622   0.79079   0.79151   0.80150   0.80229
 Alpha virt. eigenvalues --    0.81188   0.81699   0.81970   0.82670   0.83539
 Alpha virt. eigenvalues --    0.84132   0.84281   0.84472   0.87458   0.87485
 Alpha virt. eigenvalues --    0.87826   0.88564   0.88889   0.89616   0.90101
 Alpha virt. eigenvalues --    0.90383   0.91229   0.91559   0.92377   0.92825
 Alpha virt. eigenvalues --    0.92940   0.93170   0.93293   0.93395   0.93504
 Alpha virt. eigenvalues --    0.93929   0.94648   0.95052   0.95301   0.95785
 Alpha virt. eigenvalues --    0.96581   0.96852   0.96995   0.97358   0.97431
 Alpha virt. eigenvalues --    0.97932   0.98229   0.98511   0.98649   0.99158
 Alpha virt. eigenvalues --    0.99222   0.99686   0.99711   0.99737   0.99854
 Alpha virt. eigenvalues --    0.99945   1.00081   1.00363   1.00788   1.01473
 Alpha virt. eigenvalues --    1.01702   1.01731   1.01958   1.02260   1.02273
 Alpha virt. eigenvalues --    1.02903   1.03013   1.03055   1.03476   1.03530
 Alpha virt. eigenvalues --    1.03844   1.04322   1.05044   1.05210   1.05524
 Alpha virt. eigenvalues --    1.05537   1.05797   1.05863   1.05948   1.06497
 Alpha virt. eigenvalues --    1.07125   1.07476   1.08044   1.08381   1.08567
 Alpha virt. eigenvalues --    1.08892   1.09299   1.09357   1.09510   1.09578
 Alpha virt. eigenvalues --    1.09861   1.10379   1.11703   1.12026   1.12231
 Alpha virt. eigenvalues --    1.12965   1.13212   1.13249   1.13423   1.13629
 Alpha virt. eigenvalues --    1.13927   1.13932   1.14088   1.14868   1.15808
 Alpha virt. eigenvalues --    1.16103   1.16531   1.16927   1.17062   1.17103
 Alpha virt. eigenvalues --    1.18339   1.18754   1.19275   1.19630   1.21233
 Alpha virt. eigenvalues --    1.22118   1.24595   1.26075   1.26082   1.26815
 Alpha virt. eigenvalues --    1.28014   1.30601   1.31876   1.32228   1.32891
 Alpha virt. eigenvalues --    1.33000   1.33668   1.33962   1.35208   1.37984
 Alpha virt. eigenvalues --    1.39033   1.40196   1.40313   1.40425   1.40637
 Alpha virt. eigenvalues --    1.40689   1.40732   1.41168   1.41430   1.41697
 Alpha virt. eigenvalues --    1.41867   1.42351   1.43012   1.43023   1.43098
 Alpha virt. eigenvalues --    1.43645   1.44111   1.44518   1.44666   1.45111
 Alpha virt. eigenvalues --    1.45561   1.46406   1.47076   1.47168   1.47431
 Alpha virt. eigenvalues --    1.47860   1.48840   1.49001   1.49854   1.50155
 Alpha virt. eigenvalues --    1.50567   1.51071   1.51669   1.52252   1.52925
 Alpha virt. eigenvalues --    1.53071   1.53921   1.53997   1.54225   1.54451
 Alpha virt. eigenvalues --    1.54973   1.55067   1.55148   1.55525   1.56047
 Alpha virt. eigenvalues --    1.56261   1.56820   1.57271   1.57556   1.57596
 Alpha virt. eigenvalues --    1.57674   1.57855   1.59314   1.59646   1.59719
 Alpha virt. eigenvalues --    1.59987   1.60201   1.60204   1.61608   1.62059
 Alpha virt. eigenvalues --    1.62379   1.63222   1.63897   1.64100   1.64800
 Alpha virt. eigenvalues --    1.65022   1.65313   1.66074   1.66224   1.66643
 Alpha virt. eigenvalues --    1.66657   1.66836   1.67065   1.67584   1.67591
 Alpha virt. eigenvalues --    1.67776   1.67971   1.68140   1.68352   1.68369
 Alpha virt. eigenvalues --    1.68667   1.68996   1.69152   1.69299   1.70056
 Alpha virt. eigenvalues --    1.70420   1.70462   1.70742   1.71342   1.71581
 Alpha virt. eigenvalues --    1.71584   1.72556   1.72643   1.72908   1.73259
 Alpha virt. eigenvalues --    1.73323   1.73544   1.74285   1.74339   1.74641
 Alpha virt. eigenvalues --    1.74683   1.74736   1.75275   1.75397   1.75460
 Alpha virt. eigenvalues --    1.75589   1.75907   1.76377   1.76637   1.77031
 Alpha virt. eigenvalues --    1.77768   1.77788   1.78078   1.79062   1.79685
 Alpha virt. eigenvalues --    1.79749   1.80249   1.80900   1.81079   1.81717
 Alpha virt. eigenvalues --    1.81876   1.81974   1.82300   1.82613   1.82705
 Alpha virt. eigenvalues --    1.82898   1.83475   1.84086   1.84549   1.85108
 Alpha virt. eigenvalues --    1.85868   1.85999   1.86369   1.86607   1.87188
 Alpha virt. eigenvalues --    1.87533   1.88145   1.88286   1.88644   1.88884
 Alpha virt. eigenvalues --    1.88916   1.89754   1.90248   1.90358   1.90381
 Alpha virt. eigenvalues --    1.90656   1.91276   1.91498   1.91513   1.91615
 Alpha virt. eigenvalues --    1.91803   1.92492   1.93149   1.93335   1.93525
 Alpha virt. eigenvalues --    1.93587   1.93843   1.94496   1.95109   1.95482
 Alpha virt. eigenvalues --    1.95919   1.96374   1.96445   1.96696   1.96828
 Alpha virt. eigenvalues --    1.96972   1.97624   1.97686   1.98164   1.98507
 Alpha virt. eigenvalues --    1.98691   1.99820   2.00022   2.00646   2.01341
 Alpha virt. eigenvalues --    2.01696   2.02207   2.02636   2.02931   2.03622
 Alpha virt. eigenvalues --    2.04221   2.04530   2.05486   2.06240   2.06516
 Alpha virt. eigenvalues --    2.07600   2.07655   2.08190   2.08550   2.09127
 Alpha virt. eigenvalues --    2.09278   2.09515   2.09747   2.10666   2.10808
 Alpha virt. eigenvalues --    2.11667   2.12052   2.13097   2.13266   2.14641
 Alpha virt. eigenvalues --    2.15010   2.16527   2.16912   2.16978   2.17617
 Alpha virt. eigenvalues --    2.17707   2.19107   2.19515   2.20670   2.20886
 Alpha virt. eigenvalues --    2.22489   2.23519   2.23525   2.23881   2.24934
 Alpha virt. eigenvalues --    2.25156   2.25614   2.26272   2.26775   2.26825
 Alpha virt. eigenvalues --    2.27130   2.27221   2.27298   2.29073   2.30105
 Alpha virt. eigenvalues --    2.31268   2.32831   2.33949   2.34087   2.36441
 Alpha virt. eigenvalues --    2.37073   2.37956   2.38586   2.39196   2.39513
 Alpha virt. eigenvalues --    2.39589   2.40157   2.40288   2.40539   2.40933
 Alpha virt. eigenvalues --    2.41528   2.41550   2.41931   2.42737   2.43064
 Alpha virt. eigenvalues --    2.43841   2.44425   2.44664   2.47595   2.47658
 Alpha virt. eigenvalues --    2.48570   2.49949   2.50823   2.50998   2.51254
 Alpha virt. eigenvalues --    2.51553   2.51638   2.54101   2.54735   2.55183
 Alpha virt. eigenvalues --    2.56130   2.56391   2.57536   2.58076   2.58485
 Alpha virt. eigenvalues --    2.58739   2.60219   2.60242   2.63562   2.63939
 Alpha virt. eigenvalues --    2.66056   2.67782   2.68955   2.70259   2.70688
 Alpha virt. eigenvalues --    2.72234   2.72283   2.72696   2.73456   2.74996
 Alpha virt. eigenvalues --    2.76742   2.77112   2.77952   2.78699   2.80922
 Alpha virt. eigenvalues --    2.81208   2.82128   2.82810   2.82901   2.83368
 Alpha virt. eigenvalues --    2.83519   2.90311   2.92196   2.94757   2.96318
 Alpha virt. eigenvalues --    2.96977   2.98020   2.98616   2.99344   2.99533
 Alpha virt. eigenvalues --    3.02532   3.06405   3.07246   3.07940   3.12271
 Alpha virt. eigenvalues --    3.13258   3.15956   3.18838   3.19437   3.22349
 Alpha virt. eigenvalues --    3.26209   3.32685   3.32972   3.34864   3.38672
 Alpha virt. eigenvalues --    3.38792   3.44673   3.46963   3.49472   3.55052
 Alpha virt. eigenvalues --    3.56066   3.58268   3.58293   3.62489   3.64084
 Alpha virt. eigenvalues --    3.64438   3.76574   3.85359
          Condensed to atoms (all electrons):
 Mulliken charges:
               1
     1  C   -0.031847
     2  C   -0.026138
     3  C    0.060435
     4  C    0.056671
     5  C    0.029860
     6  C    0.072425
     7  C    0.039052
     8  C    0.056571
     9  C    0.029932
    10  C    0.075929
    11  C    0.072356
    12  C   -0.056700
    13  C    0.033557
    14  C    0.020246
    15  C    0.033455
    16  C   -0.056553
    17  C   -0.031892
    18  C   -0.026006
    19  C    0.060578
    20  C   -0.026473
    21  C   -0.030648
    22  C    0.068360
    23  C   -0.030576
    24  C   -0.026572
    25  C   -0.104803
    26  C    0.204681
    27  C   -0.104858
    28  C   -0.050312
    29  C    0.094803
    30  C   -0.045475
    31  C   -0.052533
    32  C    0.093980
    33  C   -0.052559
[...]
      2          6           0        0.024861    0.002392    1.531191
      3          6           0        1.248311   -0.055648    2.244819
      4          6           0        2.514211   -0.023198    1.536998
      5          6           0        2.532993    0.062496    0.124359
      6          6           0        1.283588    0.117082   -0.614954
      7          6           0        3.735445   -0.077801    2.258485
      8          6           0        4.975094   -0.042898    1.570382
      9          6           0        4.994792    0.044066    0.157315
     10          6           0        3.773963    0.094543   -0.561086
     11          6           0        6.262039    0.081112   -0.548647
     12          6           0        6.290524    0.163987   -1.960586
     13          6           0        5.032089    0.204751   -2.700640
     14          6           0        3.794782    0.175238   -2.007334
     15          6           0        2.573715    0.219605   -2.736208
     16          6           0        1.293028    0.196983   -2.027451
     17          6           0        7.483991    0.034824    0.166470
     18          6           0        7.463519   -0.058444    1.628509
     19          6           0        6.221357   -0.097337    2.310615
     20          6           0        6.207439   -0.190391    3.724247
     21          6           0        4.929413   -0.232505    4.435347
     22          6           0        3.715414   -0.172906    3.705543
     23          6           0        2.481730   -0.210259    4.402705
     24          6           0        1.223765   -0.145494    3.658515
     25          6           0        2.629826    0.280492   -4.120497
     26          6           0        3.856307    0.313671   -4.798188
     27          6           0        5.037499    0.272238   -4.092809
     28          6           0        8.689926    0.077593   -0.542907
     29          6           0        8.706297    0.162123   -1.925578
     30          6           0        7.515820    0.204018   -2.628293
     31          6           0        2.486708   -0.310127    5.797050
     32          6           0        3.675986   -0.370949    6.503290
     33          6           0        4.884695   -0.331789    5.829377
     34          6           0        8.650885   -0.112136    2.367026
     35          6           0        8.629427   -0.201829    3.748187
     36          6           0        7.419583   -0.240604    4.419416
     37          6           0       -1.181902   -0.027890    2.239222
     38          6           0       -1.197610   -0.112899    3.620661
     39          6           0       -0.006113   -0.171362    4.322741
     40          6           0       -1.143625    0.148123   -0.670414
     41          6           0       -1.123666    0.228886   -2.052359
     42          6           0        0.085383    0.252600   -2.724803
     43          7           0        4.008154    0.390701   -6.184032
     44          7           0        2.971288    0.385805   -6.927736
     45          6           0        2.132620    1.397700   -7.447312
     46          6           0        1.038075    1.074768   -8.266975
     47          6           0        0.205836    2.072793   -8.786154
     48          6           0        0.436901    3.415607   -8.505768
     49          6           0        1.510727    3.737042   -7.702486
     50          6           0        2.363116    2.740666   -7.170259
     51          8           0       -0.432532    4.365762   -9.051235
     52          1           0        5.955726    0.296299   -4.671821
     53          1           0        1.728573    0.307634   -4.726822
     54          1           0        0.847843    0.024154   -8.492137
     55          1           0       -0.643490    1.814396   -9.421374
     56          1           0       -0.154172    5.244497   -8.773143
     57          1           0        3.205241    3.023194   -6.535578
     58          1           0        1.708881    4.786135   -7.469476
     59          1           0        7.555888    0.269664   -3.713581
     60          1           0        9.655533    0.194940   -2.460394
     61          1           0        9.640226    0.045503   -0.018630
     62          1           0        5.801910   -0.381319    6.409901
     63          1           0        3.660603   -0.449694    7.590738
     64          1           0        1.553070   -0.343255    6.352006
     65          1           0        7.432574   -0.310891    5.503757
     66          1           0        9.564901   -0.242386    4.306949
     67          1           0        9.615101   -0.085078    1.867993
     68          1           0       -0.047627   -0.237500    5.406738
     69          1           0       -2.147587   -0.134445    4.155521
     70          1           0       -2.132306    0.014566    1.715368
     71          1           0        0.071922    0.316887   -3.810423
     72          1           0       -2.058611    0.273388   -2.611064
     73          1           0       -2.107140    0.130345   -0.170063
 ---------------------------------------------------------------------
 Rotational constants (GHZ):      0.0960110      0.0373602      0.0278012
 Standard basis: CC-pVDZ (5D, 7F)
   824 basis functions,  1837 primitive gaussians,   875 cartesian basis functions
   166 alpha electrons      166 beta electrons
       nuclear repulsion energy      5784.9412649502 Hartrees.
 NAtoms=   73 NActive=   73 NUniq=   73 SFac= 1.00D+00 NAtFMM=   60 NAOKFM=T Big=T
 Integral buffers will be    131072 words long.
 Raffenetti 1 integral format.
 Two-electron integral symmetry is turned off.
 ------------------------------------------------------------------------------
 Polarizable Continuum Model (PCM)
 =================================
 Model                : PCM (using non-symmetric T matrix).
 Atomic radii         : UFF (Universal Force Field).
 Polarization charges : Total charges.
 Charge compensation  : None.
 Solution method      : On-the-fly selection.
 Cavity type          : Scaled VdW (van der Waals Surface) (Alpha=1.100).
 Cavity algorithm     : GePol (No added spheres)
                        Default sphere list used, NSphG=   73.
                        Lebedev-Laikov grids with approx.  5.0 points / Ang**2.
                        Smoothing algorithm: Karplus/York (Gamma=1.0000).
                        Polarization charges: spherical gaussians, with
                                              point-specific exponents (IZeta= 3).
                        Self-potential: point-specific (ISelfS= 7).
                        Self-field    : sphere-specific E.n sum rule (ISelfD= 2).
 1st derivatives      : Analytical E(r).r(x)/FMM algorithm (CHGder, D1EAlg=3).
                        Cavity 1st derivative terms included.
 Solvent              : Water, Eps=  78.355300 Eps(inf)=   1.777849
 ------------------------------------------------------------------------------
 One-electron integrals computed using PRISM.
 NBasis=   824 RedAO= T EigKep=  1.31D-05  NBF=   824
 NBsUse=   824 1.00D-06 EigRej= -1.00D+00 NBFU=   824
 Initial guess from the checkpoint file:  "Azo90.chk"
 B after Tr=     0.027778   -0.023193   -0.002525
         Rot=    0.999997   -0.001016   -0.000196   -0.002200 Ang=  -0.28 deg.
 ExpMin= 1.22D-01 ExpMax= 1.17D+04 ExpMxC= 4.01D+02 IAcc=1 IRadAn=         1 AccDes= 0.00D+00
 Harris functional with IExCor=20419 and IRadAn=       1 diagonalized for initial guess.
 HarFok:  IExCor=20419 AccDes= 0.00D+00 IRadAn=         1 IDoV= 1 UseB2=F ITyADJ=14
 ICtDFT=  3500011 ScaDFX=  1.000000  1.000000  1.000000  1.000000
 FoFCou: FMM=F IPFlag=           0 FMFlag=      100000 FMFlg1=        2001
         NFxFlg=           0 DoJE=T BraDBF=F KetDBF=T FulRan=T
         wScrn=  0.000000 ICntrl=     500 IOpCl=  0 I1Cent=   200000004 NGrid=           0
         NMat0=    1 NMatS0=      1 NMatT0=    0 NMatD0=    1 NMtDS0=    0 NMtDT0=    0
 Symmetry not used in FoFCou.
 Requested convergence on RMS density matrix=1.00D-08 within 128 cycles.
 Requested convergence on MAX density matrix=1.00D-06.
 Requested convergence on             energy=1.00D-06.
 No special actions if energy rises.
 Inv3:  Mode=1 IEnd=    75090027.
 Iteration    1 A*A^-1 deviation from unit magnitude is 8.55D-15 for   1004.
 Iteration    1 A*A^-1 deviation from orthogonality  is 8.39D-15 for   4997   2648.
 Iteration    1 A^-1*A deviation from unit magnitude is 9.44D-15 for   4996.
 Iteration    1 A^-1*A deviation from orthogonality  is 1.10D-10 for   2625   2618.
 Iteration    2 A*A^-1 deviation from unit magnitude is 1.19D-14 for   1004.
 Iteration    2 A*A^-1 deviation from orthogonality  is 8.42D-15 for   3520   1003.
 Iteration    2 A^-1*A deviation from unit magnitude is 1.33D-15 for    748.
 Iteration    2 A^-1*A deviation from orthogonality  is 6.78D-16 for   4987   3597.
 Restarting incremental Fock formation.
 Error on total polarization charges =  0.01978
 SCF Done:  E(RCAM-B3LYP) =  -2026.16458550     A.U. after   36 cycles
            NFock= 36  Conv=0.95D-08     -V/T= 2.0060
 DoSCS=F DFT=T ScalE2(SS,OS)=  1.000000  1.000000
 ExpMin= 1.22D-01 ExpMax= 1.17D+04 ExpMxC= 4.01D+02 IAcc=3 IRadAn=         5 AccDes= 0.00D+00
 HarFok:  IExCor=  205 AccDes= 0.00D+00 IRadAn=         5 IDoV=-2 UseB2=F ITyADJ=14
 ICtDFT= 12500011 ScaDFX=  1.000000  1.000000  1.000000  1.000000
 Range of M.O.s used for correlation:    52   824
 NBasis=   824 NAE=   166 NBE=   166 NFC=    51 NFV=     0
 NROrb=    773 NOA=   115 NOB=   115 NVA=   658 NVB=   658

 **** Warning!!: The largest alpha MO coefficient is  0.41291719D+02

 Would need an additional        340222300000 words for in-memory AO integral storage.
 NEqPCM:  Using equilibrium solvation (IEInf=0, Eps=  78.3553, EpsInf=   1.7778)
 Generating guess from densities on rwf.
 Convergence on wavefunction:    0.000001000000000
 Iteration     1 Dimension     6 NMult     0 NNew      6
 CISAX will form     6 AO SS matrices at one time.
 New state      2 was old state      3
 New state      3 was old state      2
 Iteration     2 Dimension    12 NMult     6 NNew      6
 Iteration     3 Dimension    18 NMult    12 NNew      6
 Iteration     4 Dimension    24 NMult    18 NNew      6
 Iteration     5 Dimension    30 NMult    24 NNew      6
 Iteration     6 Dimension    36 NMult    30 NNew      6
 Iteration     7 Dimension    42 NMult    36 NNew      6
 Iteration     8 Dimension    48 NMult    42 NNew      6
 Iteration     9 Dimension    54 NMult    48 NNew      6
 Iteration    10 Dimension    60 NMult    54 NNew      6
 Iteration    11 Dimension    66 NMult    60 NNew      6
 Iteration    12 Dimension    72 NMult    66 NNew      6
 Iteration    13 Dimension    78 NMult    72 NNew      6
 Iteration    14 Dimension    84 NMult    78 NNew      6
 Iteration    15 Dimension    90 NMult    84 NNew      6
 Iteration    16 Dimension    96 NMult    90 NNew      6
 Iteration    17 Dimension   102 NMult    96 NNew      6
 Iteration    18 Dimension   108 NMult   102 NNew      6
 Iteration    19 Dimension   114 NMult   108 NNew      6
 Iteration    20 Dimension   120 NMult   114 NNew      6
 Iteration    21 Dimension   126 NMult   120 NNew      6
 Iteration    22 Dimension   132 NMult   126 NNew      6
 Iteration    23 Dimension   138 NMult   132 NNew      6
 Iteration    24 Dimension   144 NMult   138 NNew      6
 Iteration    25 Dimension   150 NMult   144 NNew      6
 Iteration    26 Dimension   156 NMult   150 NNew      6
 Iteration    27 Dimension   162 NMult   156 NNew      6
 Iteration    28 Dimension   168 NMult   162 NNew      6
 Iteration    29 Dimension   174 NMult   168 NNew      6
 Iteration    30 Dimension   180 NMult   174 NNew      6
 Iteration    31 Dimension   186 NMult   180 NNew      6
 Iteration    32 Dimension   192 NMult   186 NNew      6
 Iteration    33 Dimension   198 NMult   192 NNew      6
 Davidson failed to converge within maximum sub-space dimensions.
  Restart with updated initial guess:
 Iteration     1 Dimension    12 NMult   198 NNew     12
 Iteration     2 Dimension    18 NMult   210 NNew      6
 Iteration     3 Dimension    24 NMult   216 NNew      6
 Iteration     4 Dimension    30 NMult   222 NNew      6
 Iteration     5 Dimension    36 NMult   228 NNew      6
 Iteration     6 Dimension    42 NMult   234 NNew      6
 Iteration     7 Dimension    48 NMult   240 NNew      6
 Iteration     8 Dimension    54 NMult   246 NNew      6
 Iteration     9 Dimension    60 NMult   252 NNew      6
 Iteration    10 Dimension    66 NMult   258 NNew      6
 Iteration    11 Dimension    72 NMult   264 NNew      6
 Iteration    12 Dimension    78 NMult   270 NNew      6
 Iteration    13 Dimension    84 NMult   276 NNew      6
 Iteration    14 Dimension    90 NMult   282 NNew      6
 Iteration    15 Dimension    96 NMult   288 NNew      6
 Iteration    16 Dimension   102 NMult   294 NNew      6
 Iteration    17 Dimension   108 NMult   300 NNew      6
 Iteration    18 Dimension   114 NMult   306 NNew      6
 Iteration    19 Dimension   120 NMult   312 NNew      6
 Iteration    20 Dimension   126 NMult   318 NNew      6
 Iteration    21 Dimension   132 NMult   324 NNew      6
 Iteration    22 Dimension   138 NMult   330 NNew      6
 Iteration    23 Dimension   144 NMult   336 NNew      6
 Iteration    24 Dimension   150 NMult   342 NNew      6
 Iteration    25 Dimension   156 NMult   348 NNew      6
 Iteration    26 Dimension   162 NMult   354 NNew      6
 Iteration    27 Dimension   168 NMult   360 NNew      6
 Iteration    28 Dimension   174 NMult   366 NNew      6
 Iteration    29 Dimension   180 NMult   372 NNew      6
 Iteration    30 Dimension   186 NMult   378 NNew      6
 Iteration    31 Dimension   192 NMult   384 NNew      6
 Iteration    32 Dimension   198 NMult   390 NNew      6
 Davidson failed to converge within maximum sub-space dimensions.
  Restart with updated initial guess:
 Iteration     1 Dimension    12 NMult   396 NNew     12
 Iteration     2 Dimension    18 NMult   408 NNew      6
 Iteration     3 Dimension    24 NMult   414 NNew      6
 Iteration     4 Dimension    30 NMult   420 NNew      6
 Iteration     5 Dimension    36 NMult   426 NNew      6
 Iteration     6 Dimension    42 NMult   432 NNew      6
 Iteration     7 Dimension    48 NMult   438 NNew      6
 Iteration     8 Dimension    54 NMult   444 NNew      6
 Iteration     9 Dimension    60 NMult   450 NNew      6
 Iteration    10 Dimension    66 NMult   456 NNew      6
 Iteration    11 Dimension    72 NMult   462 NNew      6
 Iteration    12 Dimension    78 NMult   468 NNew      6
 Iteration    13 Dimension    84 NMult   474 NNew      6
 Iteration    14 Dimension    90 NMult   480 NNew      6
 Iteration    15 Dimension    96 NMult   486 NNew      6
 Iteration    16 Dimension   102 NMult   492 NNew      6
 Iteration    17 Dimension   108 NMult   498 NNew      6
 Iteration    18 Dimension   114 NMult   504 NNew      6
 Iteration    19 Dimension   120 NMult   510 NNew      6
 Iteration    20 Dimension   126 NMult   516 NNew      6
 Iteration    21 Dimension   132 NMult   522 NNew      6
 Iteration    22 Dimension   138 NMult   528 NNew      6
 Iteration    23 Dimension   144 NMult   534 NNew      6
 Iteration    24 Dimension   150 NMult   540 NNew      6
 Iteration    25 Dimension   156 NMult   546 NNew      6
 Iteration    26 Dimension   162 NMult   552 NNew      6
 Iteration    27 Dimension   168 NMult   558 NNew      6
 Iteration    28 Dimension   174 NMult   564 NNew      6
 Iteration    29 Dimension   178 NMult   570 NNew      4
 Iteration    30 Dimension   184 NMult   574 NNew      6
 Iteration    31 Dimension   190 NMult   580 NNew      6
 Iteration    32 Dimension   196 NMult   586 NNew      6
 Davidson failed to converge within maximum sub-space dimensions.
  Restart with updated initial guess:
 Iteration     1 Dimension    12 NMult   592 NNew     12
 Iteration     2 Dimension    18 NMult   604 NNew      6
 Iteration     3 Dimension    24 NMult   610 NNew      6
 Iteration     4 Dimension    30 NMult   616 NNew      6
 Iteration     5 Dimension    36 NMult   622 NNew      6
 Iteration     6 Dimension    42 NMult   628 NNew      6
 Iteration     7 Dimension    48 NMult   634 NNew      6
 Iteration     8 Dimension    54 NMult   640 NNew      6
 Iteration     9 Dimension    60 NMult   646 NNew      6
 Iteration    10 Dimension    66 NMult   652 NNew      6
 Iteration    11 Dimension    72 NMult   658 NNew      6
 Iteration    12 Dimension    78 NMult   664 NNew      6
 Iteration    13 Dimension    84 NMult   670 NNew      6
 Iteration    14 Dimension    90 NMult   676 NNew      6
 Iteration    15 Dimension    94 NMult   682 NNew      4
 Iteration    16 Dimension    98 NMult   686 NNew      4
 Iteration    17 Dimension   104 NMult   690 NNew      6
 Iteration    18 Dimension   110 NMult   696 NNew      6
 Iteration    19 Dimension   116 NMult   702 NNew      6
 Iteration    20 Dimension   122 NMult   708 NNew      6
 Iteration    21 Dimension   126 NMult   714 NNew      4
 Iteration    22 Dimension   130 NMult   718 NNew      4
 Iteration    23 Dimension   134 NMult   722 NNew      4
 Iteration    24 Dimension   138 NMult   726 NNew      4
 Iteration    25 Dimension   144 NMult   730 NNew      6
 Iteration    26 Dimension   150 NMult   736 NNew      6
 Iteration    27 Dimension   156 NMult   742 NNew      6
 Iteration    28 Dimension   158 NMult   748 NNew      2
 Iteration    29 Dimension   164 NMult   750 NNew      6
 Iteration    30 Dimension   170 NMult   756 NNew      6
 Iteration    31 Dimension   176 NMult   762 NNew      6
 Iteration    32 Dimension   180 NMult   768 NNew      4
 Iteration    33 Dimension   184 NMult   772 NNew      4
 Iteration    34 Dimension   188 NMult   776 NNew      4
 Iteration    35 Dimension   190 NMult   780 NNew      2
 Iteration    36 Dimension   192 NMult   782 NNew      2
 Iteration    37 Dimension   194 NMult   784 NNew      2
 Iteration    38 Dimension   198 NMult   786 NNew      4
 Davidson failed to converge within maximum sub-space dimensions.
  Restart with updated initial guess:
 Iteration     1 Dimension    12 NMult   790 NNew     12
 Iteration     2 Dimension    18 NMult   802 NNew      6
 Iteration     3 Dimension    24 NMult   808 NNew      6
 Iteration     4 Dimension    30 NMult   814 NNew      6
 Iteration     5 Dimension    36 NMult   820 NNew      6
 Iteration     6 Dimension    42 NMult   826 NNew      6
 Iteration     7 Dimension    48 NMult   832 NNew      6
 Iteration     8 Dimension    54 NMult   838 NNew      6
 Iteration     9 Dimension    60 NMult   844 NNew      6
 Iteration    10 Dimension    64 NMult   850 NNew      4
 Iteration    11 Dimension    68 NMult   854 NNew      4
 Iteration    12 Dimension    72 NMult   858 NNew      4
 Iteration    13 Dimension    78 NMult   862 NNew      6
 Iteration    14 Dimension    82 NMult   868 NNew      4
 Iteration    15 Dimension    86 NMult   872 NNew      4
 Iteration    16 Dimension    90 NMult   876 NNew      4
 Iteration    17 Dimension    94 NMult   880 NNew      4
 Iteration    18 Dimension   100 NMult   884 NNew      6
 Iteration    19 Dimension   106 NMult   890 NNew      6
 Iteration    20 Dimension   112 NMult   896 NNew      6
 Iteration    21 Dimension   114 NMult   902 NNew      2
 Iteration    22 Dimension   116 NMult   904 NNew      2
 Iteration    23 Dimension   120 NMult   906 NNew      4
 Iteration    24 Dimension   124 NMult   910 NNew      4
 Iteration    25 Dimension   126 NMult   914 NNew      2
 Iteration    26 Dimension   128 NMult   916 NNew      2
 Iteration    27 Dimension   132 NMult   918 NNew      4
 Iteration    28 Dimension   136 NMult   922 NNew      4
 Iteration    29 Dimension   140 NMult   926 NNew      4
 Iteration    30 Dimension   144 NMult   930 NNew      4
 Iteration    31 Dimension   150 NMult   934 NNew      6
 Iteration    32 Dimension   156 NMult   940 NNew      6
