 Entering Gaussian System, Link 0=g09
 Input=L0tailexcited.com
 Output=L0tailexcited.log
 Initial command:
 /home/sknippen/PROGRAMS/GAUSSIAN/g09.d01/tar//g09/l1.exe "/scratch/tbergs/Gau-26280.inp" -scrdir="/scratch/tbergs/"
 Entering Link 1 = /home/sknippen/PROGRAMS/GAUSSIAN/g09.d01/tar//g09/l1.exe PID=     26282.
  
 Copyright (c) 1988,1990,1992,1993,1995,1998,2003,2009,2013,
            Gaussian, Inc.  All Rights Reserved.
  
 This is part of the Gaussian(R) 09 program.  It is based on
 the Gaussian(R) 03 system (copyright 2003, Gaussian, Inc.),
 the Gaussian(R) 98 system (copyright 1998, Gaussian, Inc.),
 the Gaussian(R) 94 system (copyright 1995, Gaussian, Inc.),
 the Gaussian 92(TM) system (copyright 1992, Gaussian, Inc.),
 the Gaussian 90(TM) system (copyright 1990, Gaussian, Inc.),
 the Gaussian 88(TM) system (copyright 1988, Gaussian, Inc.),
 the Gaussian 86(TM) system (copyright 1986, Carnegie Mellon
 University), and the Gaussian 82(TM) system (copyright 1983,
 Carnegie Mellon University). Gaussian is a federally registered
 trademark of Gaussian, Inc.
  
 This software contains proprietary and confidential information,
 including trade secrets, belonging to Gaussian, Inc.
  
 This software is provided under written license and may be
 used, copied, transmitted, or stored only in accord with that
 written license.
  
 The following legend is applicable only to US Government
 contracts under FAR:
  
                    RESTRICTED RIGHTS LEGEND
  
 Use, reproduction and disclosure by the US Government is
 subject to restrictions as set forth in subparagraphs (a)
 and (c) of the Commercial Computer Software - Restricted
 Rights clause in FAR 52.227-19.
  
 Gaussian, Inc.
 340 Quinnipiac St., Bldg. 40, Wallingford CT 06492
  
  
 ---------------------------------------------------------------
 Warning -- This program may not be used in any manner that
 competes with the business of Gaussian, Inc. or will provide
 assistance to any competitor of Gaussian, Inc.  The licensee
 of this program is prohibited from giving any competitor of
 Gaussian, Inc. access to this program.  By using this program,
 the user acknowledges that Gaussian, Inc. is engaged in the
 business of creating and licensing software in the field of
 computational chemistry and represents and warrants to the
 licensee that it is not a competitor of Gaussian, Inc. and that
 it will not use this program in any manner prohibited above.
 ---------------------------------------------------------------
  

 Cite this work as:
 Gaussian 09, Revision D.01,
 M. J. Frisch, G. W. Trucks, H. B. Schlegel, G. E. Scuseria, 
 M. A. Robb, J. R. Cheeseman, G. Scalmani, V. Barone, B. Mennucci, 
 G. A. Petersson, H. Nakatsuji, M. Caricato, X. Li, H. P. Hratchian, 
 A. F. Izmaylov, J. Bloino, G. Zheng, J. L. Sonnenberg, M. Hada, 
 M. Ehara, K. Toyota, R. Fukuda, J. Hasegawa, M. Ishida, T. Nakajima, 
 Y. Honda, O. Kitao, H. Nakai, T. Vreven, J. A. Montgomery, Jr., 
 J. E. Peralta, F. Ogliaro, M. Bearpark, J. J. Heyd, E. Brothers, 
 K. N. Kudin, V. N. Staroverov, T. Keith, R. Kobayashi, J. Normand, 
 K. Raghavachari, A. Rendell, J. C. Burant, S. S. Iyengar, J. Tomasi, 
 M. Cossi, N. Rega, J. M. Millam, M. Klene, J. E. Knox, J. B. Cross, 
 V. Bakken, C. Adamo, J. Jaramillo, R. Gomperts, R. E. Stratmann, 
 O. Yazyev, A. J. Austin, R. Cammi, C. Pomelli, J. W. Ochterski, 
 R. L. Martin, K. Morokuma, V. G. Zakrzewski, G. A. Voth, 
 P. Salvador, J. J. Dannenberg, S. Dapprich, A. D. Daniels, 
 O. Farkas, J. B. Foresman, J. V. Ortiz, J. Cioslowski, 
 and D. J. Fox, Gaussian, Inc., Wallingford CT, 2013.
 
 ******************************************
 Gaussian 09:  ES64L-G09RevD.01 24-Apr-2013
                 6-May-2017 
 ******************************************
 %mem=50Gb
 %nprocs=20
 Will use up to   20 processors via shared memory.
 %chk=L0tail.chk
 ----------------------------------------------------------------------
 #CAM-B3LYP/cc-pVDZ opt(noeigentest,modredundant) nosymm SCRF=(Solvent=
 water) TD(NStates=3) guess=read geom=(allcheck,modredundant)
 ----------------------------------------------------------------------
 1/11=1,14=-1,18=120,19=15,26=3,29=7,38=1/1,3;
 2/9=110,12=2,15=1,40=1/2;
 3/5=16,11=9,14=-4,16=1,25=1,30=1,70=2201,71=1,72=1,74=-40,116=-2/1,2,8,3;
 4/5=1/1;
 5/5=2,38=6,53=1/2;
 8/6=1,10=1,108=3/1;
 9/15=2,41=3,42=1,70=2/14;
 10/5=4,31=1/2;
 6/7=2,8=2,9=2,10=2/1;
 7/12=6,13=5,30=1/1,2,3,16;
 1/11=1,14=-1,18=20,19=15,26=3/3(2);
 2/9=110,15=1/2;
 99//99;
 2/9=110,15=1/2;
 3/5=16,11=9,14=-2,16=1,25=1,30=1,70=2205,71=1,72=1,74=-40/1,2,8,3;
 4/5=5,16=3,69=1/1;
 5/5=2,38=5,53=1/2;
 8/6=1,10=1,108=3/1;
 9/15=2,41=3,42=1,49=4,70=2/14;
 10/5=4,31=1/2;
 7/12=6,13=5,30=1/1,2,3,16;
 1/11=1,14=-1,18=20,19=15,26=3/3(-8);
 2/9=110,15=1/2;
 6/7=2,8=2,9=2,10=2/1;
 99//99;
 Structure from the checkpoint file:  "L0tail.chk"
 ----------
 L0tail deg
 ----------
 Charge =  0 Multiplicity = 1
 Redundant internal coordinates found in file.
 C,0,-0.0690227442,0.0420699998,-0.0593798448
 C,0,-0.0953677705,0.1778448812,1.3704459788
 C,0,1.1488979101,0.3402851311,2.0443394869
 C,0,2.3410572877,0.3661216293,1.3625190065
 C,0,2.3842603125,0.2311946104,-0.0702258882
 C,0,1.1635962301,0.0706484579,-0.7488518377
 C,0,-1.3184573284,-0.1230110789,-0.7372604512
 C,0,-2.503748823,-0.1545007391,-0.0436341419
 C,0,-2.5346501733,-0.0231060583,1.3791593512
 C,0,-1.331896849,0.1423652158,2.0580735983
 N,0,3.586631415,0.2605332388,-0.73405419
 C,0,4.8400319042,0.3834489174,-0.0030082051
 C,0,-3.8565119058,-0.0739671336,2.0679256563
 C,0,-3.907747142,0.0601238564,3.5850168949
 C,0,-5.3134563361,-0.0629323409,4.1729985873
 C,0,-5.3352456664,0.0783565972,5.6981595068
 C,0,-6.7351749463,-0.0724614237,6.3030183307
 C,0,-6.7657148369,0.0688313396,7.828480845
 C,0,-8.1623782885,-0.1042709396,8.4350149267
 C,0,-8.1943975237,0.0368792445,9.9605331213
 C,0,-9.5889440454,-0.1506468474,10.5676005459
 C,0,-9.6223914155,-0.0104674517,12.0929395561
 C,0,-11.0159270095,-0.2062479354,12.69997871
 C,0,-11.0391455774,-0.0663805304,14.2239844618
 C,0,3.6173687885,0.0991621001,-2.1788756474
 O,0,-4.8902712033,-0.2233702815,1.4196760831
 H,0,1.1497613095,0.4444638259,3.1324664242
 H,0,3.2652984475,0.4912005759,1.924074659
 H,0,1.1417980816,-0.0379843428,-1.8323682338
 H,0,-1.3132550485,0.2472697878,3.1445424745
 H,0,-3.4536957719,-0.2823341515,-0.564327651
 H,0,-1.3153415245,-0.2259316421,-1.8256390327
 H,0,-3.4580690137,1.0320075559,3.8589924163
 H,0,-3.2387892957,-0.7011433783,4.024552993
 H,0,4.6549105848,0.1595817027,-2.5269890564
 H,0,3.20399644,-0.8764481345,-2.4938513598
 H,0,3.0384178203,0.8892506773,-2.6891470837
 H,0,5.6700871125,0.3840628711,-0.7189214534
 H,0,4.8910803748,1.3233944723,0.5735811404
 H,0,4.9970665984,-0.4553181225,0.6985394768
 H,0,-5.9673723292,0.7001802538,3.7171640345
 H,0,-5.7431088871,-1.0376055524,3.8835118377
 H,0,-4.9176170281,1.062728391,5.9820776792
 H,0,-4.6620752185,-0.6766803055,6.1464062468
 H,0,-7.4102513548,0.6794939997,5.8525168235
 H,0,-7.1484399236,-1.0589300356,6.019875627
 H,0,-6.3646523826,1.0604740748,8.1113255176
 H,0,-6.0796330875,-0.6745185503,8.2769373155
 H,0,-8.8500402062,0.6369032557,7.9854028732
 H,0,-8.5609751849,-1.0971128771,8.1527168633
 H,0,-7.8039631575,1.0329118241,10.243000303
 H,0,-7.5001123138,-0.6987960104,10.4090973821
 H,0,-10.2840175961,0.5839743022,10.1184917777
 H,0,-9.9778983644,-1.147250299,10.2848926795
 H,0,-9.2384982695,0.9879649364,12.3767948826
 H,0,-8.924169837,-0.7421984367,12.54242393
 H,0,-11.7135160755,0.5253318636,12.2515636119
 H,0,-11.3985263236,-1.203902592,12.4150597472
 H,0,-10.6948054635,0.933836301,14.5386116439
 H,0,-10.3777512663,-0.8086031392,14.7032959179
 H,0,-12.0537571085,-0.2127865604,14.6289071515
 Recover connectivity data from disk.
 The following ModRedundant input section has been read:
 D      10       9      13      14 F                                           
 

 GradGradGradGradGradGradGradGradGradGradGradGradGradGradGradGradGradGrad
 Berny optimization.
 Initialization pass.
                           ----------------------------
                           !    Initial Parameters    !
                           ! (Angstroms and Degrees)  !
 --------------------------                            --------------------------
 ! Name  Definition              Value          Derivative Info.                !
 --------------------------------------------------------------------------------
 ! R1    R(1,2)                  1.4365         estimate D2E/DX2                !
 ! R2    R(1,6)                  1.4126         estimate D2E/DX2                !
 ! R3    R(1,7)                  1.431          estimate D2E/DX2                !
 ! R4    R(2,3)                  1.4243         estimate D2E/DX2                !
 ! R5    R(2,10)                 1.4153         estimate D2E/DX2                !
 ! R6    R(3,4)                  1.3736         estimate D2E/DX2                !
 ! R7    R(3,27)                 1.0931         estimate D2E/DX2                !
 ! R8    R(4,5)                  1.4397         estimate D2E/DX2                !
 ! R9    R(4,28)                 1.0887         estimate D2E/DX2                !
 ! R10   R(5,6)                  1.4058         estimate D2E/DX2                !
 ! R11   R(5,11)                 1.3738         estimate D2E/DX2                !
 ! R12   R(6,29)                 1.0892         estimate D2E/DX2                !
 ! R13   R(7,8)                  1.3737         estimate D2E/DX2                !
 ! R14   R(7,32)                 1.0932         estimate D2E/DX2                !
 ! R15   R(8,9)                  1.4292         estimate D2E/DX2                !
 ! R16   R(8,31)                 1.0908         estimate D2E/DX2                !
 ! R17   R(9,10)                 1.391          estimate D2E/DX2                !
 ! R18   R(9,13)                 1.4914         estimate D2E/DX2                !
 ! R19   R(10,30)                1.0917         estimate D2E/DX2                !
 ! R20   R(11,12)                1.4562         estimate D2E/DX2                !
 ! R21   R(11,25)                1.4541         estimate D2E/DX2                !
 ! R22   R(12,38)                1.0961         estimate D2E/DX2                !
 ! R23   R(12,39)                1.1039         estimate D2E/DX2                !
 ! R24   R(12,40)                1.1047         estimate D2E/DX2                !
 ! R25   R(13,14)                1.5239         estimate D2E/DX2                !
 ! R26   R(13,26)                1.2293         estimate D2E/DX2                !
 ! R27   R(14,15)                1.5287         estimate D2E/DX2                !
 ! R28   R(14,33)                1.1054         estimate D2E/DX2                !
 ! R29   R(14,34)                1.1046         estimate D2E/DX2                !
 ! R30   R(15,16)                1.5318         estimate D2E/DX2                !
 ! R31   R(15,41)                1.1035         estimate D2E/DX2                !
 ! R32   R(15,42)                1.1038         estimate D2E/DX2                !
 ! R33   R(16,17)                1.5324         estimate D2E/DX2                !
 ! R34   R(16,43)                1.1064         estimate D2E/DX2                !
 ! R35   R(16,44)                1.1064         estimate D2E/DX2                !
 ! R36   R(17,18)                1.5323         estimate D2E/DX2                !
 ! R37   R(17,45)                1.1064         estimate D2E/DX2                !
 ! R38   R(17,46)                1.1064         estimate D2E/DX2                !
 ! R39   R(18,19)                1.5325         estimate D2E/DX2                !
 ! R40   R(18,47)                1.1064         estimate D2E/DX2                !
 ! R41   R(18,48)                1.1065         estimate D2E/DX2                !
 ! R42   R(19,20)                1.5324         estimate D2E/DX2                !
 ! R43   R(19,49)                1.1065         estimate D2E/DX2                !
 ! R44   R(19,50)                1.1065         estimate D2E/DX2                !
 ! R45   R(20,21)                1.5325         estimate D2E/DX2                !
 ! R46   R(20,51)                1.1065         estimate D2E/DX2                !
 ! R47   R(20,52)                1.1066         estimate D2E/DX2                !
 ! R48   R(21,22)                1.5321         estimate D2E/DX2                !
 ! R49   R(21,53)                1.1066         estimate D2E/DX2                !
 ! R50   R(21,54)                1.1065         estimate D2E/DX2                !
 ! R51   R(22,23)                1.5326         estimate D2E/DX2                !
 ! R52   R(22,55)                1.1067         estimate D2E/DX2                !
 ! R53   R(22,56)                1.1068         estimate D2E/DX2                !
 ! R54   R(23,24)                1.5306         estimate D2E/DX2                !
 ! R55   R(23,57)                1.1059         estimate D2E/DX2                !
 ! R56   R(23,58)                1.1058         estimate D2E/DX2                !
 ! R57   R(24,59)                1.1036         estimate D2E/DX2                !
 ! R58   R(24,60)                1.1037         estimate D2E/DX2                !
 ! R59   R(24,61)                1.1022         estimate D2E/DX2                !
 ! R60   R(25,35)                1.0961         estimate D2E/DX2                !
 ! R61   R(25,36)                1.1054         estimate D2E/DX2                !
 ! R62   R(25,37)                1.1044         estimate D2E/DX2                !
 ! A1    A(2,1,6)              119.9933         estimate D2E/DX2                !
 ! A2    A(2,1,7)              117.8002         estimate D2E/DX2                !
 ! A3    A(6,1,7)              122.2063         estimate D2E/DX2                !
 ! A4    A(1,2,3)              117.7549         estimate D2E/DX2                !
 ! A5    A(1,2,10)             119.818          estimate D2E/DX2                !
 ! A6    A(3,2,10)             122.4267         estimate D2E/DX2                !
 ! A7    A(2,3,4)              121.7006         estimate D2E/DX2                !
 ! A8    A(2,3,27)             118.8511         estimate D2E/DX2                !
 ! A9    A(4,3,27)             119.4481         estimate D2E/DX2                !
 ! A10   A(3,4,5)              121.2146         estimate D2E/DX2                !
 ! A11   A(3,4,28)             118.8777         estimate D2E/DX2                !
 ! A12   A(5,4,28)             119.9077         estimate D2E/DX2                !
 ! A13   A(4,5,6)              117.7122         estimate D2E/DX2                !
 ! A14   A(4,5,11)             120.3404         estimate D2E/DX2                !
 ! A15   A(6,5,11)             121.9474         estimate D2E/DX2                !
 ! A16   A(1,6,5)              121.6244         estimate D2E/DX2                !
 ! A17   A(1,6,29)             117.779          estimate D2E/DX2                !
 ! A18   A(5,6,29)             120.5966         estimate D2E/DX2                !
 ! A19   A(1,7,8)              121.1186         estimate D2E/DX2                !
 ! A20   A(1,7,32)             118.6832         estimate D2E/DX2                !
 ! A21   A(8,7,32)             120.1982         estimate D2E/DX2                !
 ! A22   A(7,8,9)              121.2805         estimate D2E/DX2                !
 ! A23   A(7,8,31)             120.8695         estimate D2E/DX2                !
 ! A24   A(9,8,31)             117.8499         estimate D2E/DX2                !
 ! A25   A(8,9,10)             118.5634         estimate D2E/DX2                !
 ! A26   A(8,9,13)             118.4106         estimate D2E/DX2                !
 ! A27   A(10,9,13)            123.0258         estimate D2E/DX2                !
 ! A28   A(2,10,9)             121.4188         estimate D2E/DX2                !
 ! A29   A(2,10,30)            117.7881         estimate D2E/DX2                !
 ! A30   A(9,10,30)            120.793          estimate D2E/DX2                !
 ! A31   A(5,11,12)            120.8345         estimate D2E/DX2                !
 ! A32   A(5,11,25)            119.7526         estimate D2E/DX2                !
 ! A33   A(12,11,25)           119.3392         estimate D2E/DX2                !
 ! A34   A(11,12,38)           108.9023         estimate D2E/DX2                !
 ! A35   A(11,12,39)           111.956          estimate D2E/DX2                !
 ! A36   A(11,12,40)           112.1527         estimate D2E/DX2                !
 ! A37   A(38,12,39)           107.7972         estimate D2E/DX2                !
 ! A38   A(38,12,40)           107.9117         estimate D2E/DX2                !
 ! A39   A(39,12,40)           107.9526         estimate D2E/DX2                !
 ! A40   A(9,13,14)            119.1152         estimate D2E/DX2                !
 ! A41   A(9,13,26)            120.3937         estimate D2E/DX2                !
 ! A42   A(14,13,26)           120.491          estimate D2E/DX2                !
 ! A43   A(13,14,15)           114.0012         estimate D2E/DX2                !
 ! A44   A(13,14,33)           108.0862         estimate D2E/DX2                !
 ! A45   A(13,14,34)           108.3686         estimate D2E/DX2                !
 ! A46   A(15,14,33)           110.4586         estimate D2E/DX2                !
 ! A47   A(15,14,34)           110.3865         estimate D2E/DX2                !
 ! A48   A(33,14,34)           105.1264         estimate D2E/DX2                !
 ! A49   A(14,15,16)           112.8679         estimate D2E/DX2                !
 ! A50   A(14,15,41)           109.2905         estimate D2E/DX2                !
 ! A51   A(14,15,42)           109.1558         estimate D2E/DX2                !
 ! A52   A(16,15,41)           109.8198         estimate D2E/DX2                !
 ! A53   A(16,15,42)           109.6957         estimate D2E/DX2                !
 ! A54   A(41,15,42)           105.7617         estimate D2E/DX2                !
 ! A55   A(15,16,17)           113.3842         estimate D2E/DX2                !
 ! A56   A(15,16,43)           109.4025         estimate D2E/DX2                !
 ! A57   A(15,16,44)           109.3761         estimate D2E/DX2                !
 ! A58   A(17,16,43)           109.3365         estimate D2E/DX2                !
 ! A59   A(17,16,44)           109.1924         estimate D2E/DX2                !
 ! A60   A(43,16,44)           105.875          estimate D2E/DX2                !
 ! A61   A(16,17,18)           113.7078         estimate D2E/DX2                !
 ! A62   A(16,17,45)           109.2561         estimate D2E/DX2                !
 ! A63   A(16,17,46)           109.1454         estimate D2E/DX2                !
 ! A64   A(18,17,45)           109.3011         estimate D2E/DX2                !
 ! A65   A(18,17,46)           109.2413         estimate D2E/DX2                !
 ! A66   A(45,17,46)           105.8945         estimate D2E/DX2                !
 ! A67   A(17,18,19)           113.6887         estimate D2E/DX2                !
 ! A68   A(17,18,47)           109.2635         estimate D2E/DX2                !
 ! A69   A(17,18,48)           109.2186         estimate D2E/DX2                !
 ! A70   A(19,18,47)           109.2939         estimate D2E/DX2                !
 ! A71   A(19,18,48)           109.1956         estimate D2E/DX2                !
 ! A72   A(47,18,48)           105.8866         estimate D2E/DX2                !
 ! A73   A(18,19,20)           113.7442         estimate D2E/DX2                !
 ! A74   A(18,19,49)           109.2631         estimate D2E/DX2                !
 ! A75   A(18,19,50)           109.1891         estimate D2E/DX2                !
 ! A76   A(20,19,49)           109.2585         estimate D2E/DX2                !
 ! A77   A(20,19,50)           109.2151         estimate D2E/DX2                !
 ! A78   A(49,19,50)           105.8721         estimate D2E/DX2                !
 ! A79   A(19,20,21)           113.7101         estimate D2E/DX2                !
 ! A80   A(19,20,51)           109.2498         estimate D2E/DX2                !
 ! A81   A(19,20,52)           109.2207         estimate D2E/DX2                !
 ! A82   A(21,20,51)           109.2766         estimate D2E/DX2                !
 ! A83   A(21,20,52)           109.2096         estimate D2E/DX2                !
 ! A84   A(51,20,52)           105.878          estimate D2E/DX2                !
 ! A85   A(20,21,22)           113.769          estimate D2E/DX2                !
 ! A86   A(20,21,53)           109.2439         estimate D2E/DX2                !
 ! A87   A(20,21,54)           109.2004         estimate D2E/DX2                !
 ! A88   A(22,21,53)           109.2448         estimate D2E/DX2                !
 ! A89   A(22,21,54)           109.2133         estimate D2E/DX2                !
 ! A90   A(53,21,54)           105.8686         estimate D2E/DX2                !
 ! A91   A(21,22,23)           113.7345         estimate D2E/DX2                !
 ! A92   A(21,22,55)           109.288          estimate D2E/DX2                !
 ! A93   A(21,22,56)           109.2721         estimate D2E/DX2                !
 ! A94   A(23,22,55)           109.212          estimate D2E/DX2                !
 ! A95   A(23,22,56)           109.166          estimate D2E/DX2                !
 ! A96   A(55,22,56)           105.8699         estimate D2E/DX2                !
 ! A97   A(22,23,24)           113.3601         estimate D2E/DX2                !
 ! A98   A(22,23,57)           109.1756         estimate D2E/DX2                !
 ! A99   A(22,23,58)           109.1347         estimate D2E/DX2                !
 ! A100  A(24,23,57)           109.495          estimate D2E/DX2                !
 ! A101  A(24,23,58)           109.4957         estimate D2E/DX2                !
 ! A102  A(57,23,58)           105.9088         estimate D2E/DX2                !
 ! A103  A(23,24,59)           111.2197         estimate D2E/DX2                !
 ! A104  A(23,24,60)           111.2156         estimate D2E/DX2                !
 ! A105  A(23,24,61)           111.5692         estimate D2E/DX2                !
 ! A106  A(59,24,60)           107.3799         estimate D2E/DX2                !
 ! A107  A(59,24,61)           107.6298         estimate D2E/DX2                !
 ! A108  A(60,24,61)           107.6242         estimate D2E/DX2                !
 ! A109  A(11,25,35)           109.2364         estimate D2E/DX2                !
 ! A110  A(11,25,36)           111.9106         estimate D2E/DX2                !
 ! A111  A(11,25,37)           111.6287         estimate D2E/DX2                !
 ! A112  A(35,25,36)           108.1888         estimate D2E/DX2                !
 ! A113  A(35,25,37)           108.0619         estimate D2E/DX2                !
 ! A114  A(36,25,37)           107.68           estimate D2E/DX2                !
 ! D1    D(6,1,2,3)              0.0705         estimate D2E/DX2                !
 ! D2    D(6,1,2,10)          -179.7026         estimate D2E/DX2                !
 ! D3    D(7,1,2,3)            179.9168         estimate D2E/DX2                !
 ! D4    D(7,1,2,10)             0.1437         estimate D2E/DX2                !
 ! D5    D(2,1,6,5)             -0.0491         estimate D2E/DX2                !
 ! D6    D(2,1,6,29)           179.8511         estimate D2E/DX2                !
 ! D7    D(7,1,6,5)           -179.8884         estimate D2E/DX2                !
 ! D8    D(7,1,6,29)             0.0118         estimate D2E/DX2                !
 ! D9    D(2,1,7,8)             -0.1828         estimate D2E/DX2                !
 ! D10   D(2,1,7,32)           179.8943         estimate D2E/DX2                !
 ! D11   D(6,1,7,8)            179.6599         estimate D2E/DX2                !
 ! D12   D(6,1,7,32)            -0.263          estimate D2E/DX2                !
 ! D13   D(1,2,3,4)             -0.0889         estimate D2E/DX2                !
 ! D14   D(1,2,3,27)          -179.9533         estimate D2E/DX2                !
 ! D15   D(10,2,3,4)           179.6779         estimate D2E/DX2                !
 ! D16   D(10,2,3,27)           -0.1865         estimate D2E/DX2                !
 ! D17   D(1,2,10,9)             0.0447         estimate D2E/DX2                !
 ! D18   D(1,2,10,30)          179.9147         estimate D2E/DX2                !
 ! D19   D(3,2,10,9)          -179.7174         estimate D2E/DX2                !
 ! D20   D(3,2,10,30)            0.1526         estimate D2E/DX2                !
 ! D21   D(2,3,4,5)              0.0837         estimate D2E/DX2                !
 ! D22   D(2,3,4,28)          -179.9079         estimate D2E/DX2                !
 ! D23   D(27,3,4,5)           179.9473         estimate D2E/DX2                !
 ! D24   D(27,3,4,28)           -0.0443         estimate D2E/DX2                !
 ! D25   D(3,4,5,6)             -0.057          estimate D2E/DX2                !
 ! D26   D(3,4,5,11)           179.9529         estimate D2E/DX2                !
 ! D27   D(28,4,5,6)           179.9345         estimate D2E/DX2                !
 ! D28   D(28,4,5,11)           -0.0556         estimate D2E/DX2                !
 ! D29   D(4,5,6,1)              0.0401         estimate D2E/DX2                !
 ! D30   D(4,5,6,29)          -179.8573         estimate D2E/DX2                !
 ! D31   D(11,5,6,1)          -179.9701         estimate D2E/DX2                !
 ! D32   D(11,5,6,29)            0.1326         estimate D2E/DX2                !
 ! D33   D(4,5,11,12)            2.0475         estimate D2E/DX2                !
 ! D34   D(4,5,11,25)          178.905          estimate D2E/DX2                !
 ! D35   D(6,5,11,12)         -177.9421         estimate D2E/DX2                !
 ! D36   D(6,5,11,25)           -1.0846         estimate D2E/DX2                !
 ! D37   D(1,7,8,9)              0.0342         estimate D2E/DX2                !
 ! D38   D(1,7,8,31)          -179.8891         estimate D2E/DX2                !
 ! D39   D(32,7,8,9)           179.9559         estimate D2E/DX2                !
 ! D40   D(32,7,8,31)            0.0326         estimate D2E/DX2                !
 ! D41   D(7,8,9,10)             0.1567         estimate D2E/DX2                !
 ! D42   D(7,8,9,13)          -179.6635         estimate D2E/DX2                !
 ! D43   D(31,8,9,10)         -179.9177         estimate D2E/DX2                !
 ! D44   D(31,8,9,13)            0.262          estimate D2E/DX2                !
 ! D45   D(8,9,10,2)            -0.1947         estimate D2E/DX2                !
 ! D46   D(8,9,10,30)          179.9392         estimate D2E/DX2                !
 ! D47   D(13,9,10,2)          179.6167         estimate D2E/DX2                !
 ! D48   D(13,9,10,30)          -0.2494         estimate D2E/DX2                !
 ! D49   D(8,9,13,14)          179.8117         estimate D2E/DX2                !
 ! D50   D(8,9,13,26)           -0.1201         estimate D2E/DX2                !
 ! D51   D(10,9,13,14)           0.0            Frozen                          !
 ! D52   D(10,9,13,26)        -179.9318         estimate D2E/DX2                !
 ! D53   D(5,11,12,38)         179.8391         estimate D2E/DX2                !
 ! D54   D(5,11,12,39)         -61.0582         estimate D2E/DX2                !
 ! D55   D(5,11,12,40)          60.4721         estimate D2E/DX2                !
 ! D56   D(25,11,12,38)          2.9688         estimate D2E/DX2                !
 ! D57   D(25,11,12,39)        122.0715         estimate D2E/DX2                !
 ! D58   D(25,11,12,40)       -116.3982         estimate D2E/DX2                !
 ! D59   D(5,11,25,35)         179.4745         estimate D2E/DX2                !
 ! D60   D(5,11,25,36)         -60.7437         estimate D2E/DX2                !
 ! D61   D(5,11,25,37)          60.028          estimate D2E/DX2                !
 ! D62   D(12,11,25,35)         -3.6209         estimate D2E/DX2                !
 ! D63   D(12,11,25,36)        116.161          estimate D2E/DX2                !
 ! D64   D(12,11,25,37)       -123.0673         estimate D2E/DX2                !
 ! D65   D(9,13,14,15)        -177.7287         estimate D2E/DX2                !
 ! D66   D(9,13,14,33)          59.0474         estimate D2E/DX2                !
 ! D67   D(9,13,14,34)         -54.3865         estimate D2E/DX2                !
 ! D68   D(26,13,14,15)          2.203          estimate D2E/DX2                !
 ! D69   D(26,13,14,33)       -121.0208         estimate D2E/DX2                !
 ! D70   D(26,13,14,34)        125.5453         estimate D2E/DX2                !
 ! D71   D(13,14,15,16)       -179.8905         estimate D2E/DX2                !
 ! D72   D(13,14,15,41)        -57.3773         estimate D2E/DX2                !
 ! D73   D(13,14,15,42)         57.8524         estimate D2E/DX2                !
 ! D74   D(33,14,15,16)        -57.965          estimate D2E/DX2                !
 ! D75   D(33,14,15,41)         64.5481         estimate D2E/DX2                !
 ! D76   D(33,14,15,42)        179.7778         estimate D2E/DX2                !
 ! D77   D(34,14,15,16)         57.8691         estimate D2E/DX2                !
 ! D78   D(34,14,15,41)       -179.6178         estimate D2E/DX2                !
 ! D79   D(34,14,15,42)        -64.3881         estimate D2E/DX2                !
 ! D80   D(14,15,16,17)       -178.7893         estimate D2E/DX2                !
 ! D81   D(14,15,16,43)         58.8829         estimate D2E/DX2                !
 ! D82   D(14,15,16,44)        -56.6664         estimate D2E/DX2                !
 ! D83   D(41,15,16,17)         58.9942         estimate D2E/DX2                !
 ! D84   D(41,15,16,43)        -63.3337         estimate D2E/DX2                !
 ! D85   D(41,15,16,44)       -178.8829         estimate D2E/DX2                !
 ! D86   D(42,15,16,17)        -56.8356         estimate D2E/DX2                !
 ! D87   D(42,15,16,43)       -179.1634         estimate D2E/DX2                !
 ! D88   D(42,15,16,44)         65.2873         estimate D2E/DX2                !
 ! D89   D(15,16,17,18)       -179.9487         estimate D2E/DX2                !
 ! D90   D(15,16,17,45)        -57.5508         estimate D2E/DX2                !
 ! D91   D(15,16,17,46)         57.8126         estimate D2E/DX2                !
 ! D92   D(43,16,17,18)        -57.5842         estimate D2E/DX2                !
 ! D93   D(43,16,17,45)         64.8136         estimate D2E/DX2                !
 ! D94   D(43,16,17,46)       -179.8229         estimate D2E/DX2                !
 ! D95   D(44,16,17,18)         57.8263         estimate D2E/DX2                !
 ! D96   D(44,16,17,45)       -179.7759         estimate D2E/DX2                !
 ! D97   D(44,16,17,46)        -64.4124         estimate D2E/DX2                !
 ! D98   D(16,17,18,19)       -179.0781         estimate D2E/DX2                !
 ! D99   D(16,17,18,47)         58.5411         estimate D2E/DX2                !
 ! D100  D(16,17,18,48)        -56.8574         estimate D2E/DX2                !
 ! D101  D(45,17,18,19)         58.5489         estimate D2E/DX2                !
 ! D102  D(45,17,18,47)        -63.8319         estimate D2E/DX2                !
 ! D103  D(45,17,18,48)       -179.2305         estimate D2E/DX2                !
 ! D104  D(46,17,18,19)        -56.8924         estimate D2E/DX2                !
 ! D105  D(46,17,18,47)       -179.2732         estimate D2E/DX2                !
 ! D106  D(46,17,18,48)         65.3283         estimate D2E/DX2                !
 ! D107  D(17,18,19,20)       -179.9961         estimate D2E/DX2                !
 ! D108  D(17,18,19,49)        -57.6229         estimate D2E/DX2                !
 ! D109  D(17,18,19,50)         57.7417         estimate D2E/DX2                !
 ! D110  D(47,18,19,20)        -57.6321         estimate D2E/DX2                !
 ! D111  D(47,18,19,49)         64.7411         estimate D2E/DX2                !
 ! D112  D(47,18,19,50)       -179.8942         estimate D2E/DX2                !
 ! D113  D(48,18,19,20)         57.7705         estimate D2E/DX2                !
 ! D114  D(48,18,19,49)       -179.8563         estimate D2E/DX2                !
 ! D115  D(48,18,19,50)        -64.4916         estimate D2E/DX2                !
 ! D116  D(18,19,20,21)       -179.4054         estimate D2E/DX2                !
 ! D117  D(18,19,20,51)         58.2315         estimate D2E/DX2                !
 ! D118  D(18,19,20,52)        -57.1504         estimate D2E/DX2                !
 ! D119  D(49,19,20,21)         58.2189         estimate D2E/DX2                !
 ! D120  D(49,19,20,51)        -64.1442         estimate D2E/DX2                !
 ! D121  D(49,19,20,52)       -179.5261         estimate D2E/DX2                !
 ! D122  D(50,19,20,21)        -57.1576         estimate D2E/DX2                !
 ! D123  D(50,19,20,51)       -179.5207         estimate D2E/DX2                !
 ! D124  D(50,19,20,52)         65.0974         estimate D2E/DX2                !
 ! D125  D(19,20,21,22)        179.9719         estimate D2E/DX2                !
 ! D126  D(19,20,21,53)        -57.6697         estimate D2E/DX2                !
 ! D127  D(19,20,21,54)         57.6865         estimate D2E/DX2                !
 ! D128  D(51,20,21,22)        -57.6798         estimate D2E/DX2                !
 ! D129  D(51,20,21,53)         64.6786         estimate D2E/DX2                !
 ! D130  D(51,20,21,54)       -179.9652         estimate D2E/DX2                !
 ! D131  D(52,20,21,22)         57.7107         estimate D2E/DX2                !
 ! D132  D(52,20,21,53)       -179.9309         estimate D2E/DX2                !
 ! D133  D(52,20,21,54)        -64.5746         estimate D2E/DX2                !
 ! D134  D(20,21,22,23)       -179.6624         estimate D2E/DX2                !
 ! D135  D(20,21,22,55)         58.0128         estimate D2E/DX2                !
 ! D136  D(20,21,22,56)        -57.4089         estimate D2E/DX2                !
 ! D137  D(53,21,22,23)         57.9796         estimate D2E/DX2                !
 ! D138  D(53,21,22,55)        -64.3451         estimate D2E/DX2                !
 ! D139  D(53,21,22,56)       -179.7668         estimate D2E/DX2                !
 ! D140  D(54,21,22,23)        -57.3842         estimate D2E/DX2                !
 ! D141  D(54,21,22,55)       -179.709          estimate D2E/DX2                !
 ! D142  D(54,21,22,56)         64.8693         estimate D2E/DX2                !
 ! D143  D(21,22,23,24)        179.9182         estimate D2E/DX2                !
 ! D144  D(21,22,23,57)        -57.7325         estimate D2E/DX2                !
 ! D145  D(21,22,23,58)         57.598          estimate D2E/DX2                !
 ! D146  D(55,22,23,24)        -57.7152         estimate D2E/DX2                !
 ! D147  D(55,22,23,57)         64.6341         estimate D2E/DX2                !
 ! D148  D(55,22,23,58)        179.9646         estimate D2E/DX2                !
 ! D149  D(56,22,23,24)         57.6061         estimate D2E/DX2                !
 ! D150  D(56,22,23,57)        179.9554         estimate D2E/DX2                !
 ! D151  D(56,22,23,58)        -64.7141         estimate D2E/DX2                !
 ! D152  D(22,23,24,59)         59.8313         estimate D2E/DX2                !
 ! D153  D(22,23,24,60)        -59.8021         estimate D2E/DX2                !
 ! D154  D(22,23,24,61)       -179.9804         estimate D2E/DX2                !
 ! D155  D(57,23,24,59)        -62.3403         estimate D2E/DX2                !
 ! D156  D(57,23,24,60)        178.0263         estimate D2E/DX2                !
 ! D157  D(57,23,24,61)         57.8479         estimate D2E/DX2                !
 ! D158  D(58,23,24,59)       -178.0492         estimate D2E/DX2                !
 ! D159  D(58,23,24,60)         62.3174         estimate D2E/DX2                !
 ! D160  D(58,23,24,61)        -57.8609         estimate D2E/DX2                !
 --------------------------------------------------------------------------------
 Trust Radius=3.00D-01 FncErr=1.00D-07 GrdErr=1.00D-06
 Number of steps in this run=    346 maximum allowed number of steps=    366.
 GradGradGradGradGradGradGradGradGradGradGradGradGradGradGradGradGradGrad

 Symmetry turned off by external request.
 Stoichiometry    C24H35NO
 Framework group  C1[X(C24H35NO)]
 Deg. of freedom   177
 Full point group                 C1      NOp   1
                          Input orientation:                          
 ---------------------------------------------------------------------
 Center     Atomic      Atomic             Coordinates (Angstroms)
 Number     Number       Type             X           Y           Z
 ---------------------------------------------------------------------
      1          6           0       -0.069023    0.042070   -0.059380
      2          6           0       -0.095368    0.177845    1.370446
      3          6           0        1.148898    0.340285    2.044339
      4          6           0        2.341057    0.366122    1.362519
      5          6           0        2.384260    0.231195   -0.070226
      6          6           0        1.163596    0.070648   -0.748852
      7          6           0       -1.318457   -0.123011   -0.737260
      8          6           0       -2.503749   -0.154501   -0.043634
      9          6           0       -2.534650   -0.023106    1.379159
     10          6           0       -1.331897    0.142365    2.058074
     11          7           0        3.586631    0.260533   -0.734054
     12          6           0        4.840032    0.383449   -0.003008
     13          6           0       -3.856512   -0.073967    2.067926
     14          6           0       -3.907747    0.060124    3.585017
     15          6           0       -5.313456   -0.062932    4.172999
     16          6           0       -5.335246    0.078357    5.698160
     17          6           0       -6.735175   -0.072461    6.303018
     18          6           0       -6.765715    0.068831    7.828481
     19          6           0       -8.162378   -0.104271    8.435015
     20          6           0       -8.194398    0.036879    9.960533
     21          6           0       -9.588944   -0.150647   10.567601
     22          6           0       -9.622391   -0.010467   12.092940
     23          6           0      -11.015927   -0.206248   12.699979
     24          6           0      -11.039146   -0.066381   14.223984
     25          6           0        3.617369    0.099162   -2.178876
     26          8           0       -4.890271   -0.223370    1.419676
     27          1           0        1.149761    0.444464    3.132466
     28          1           0        3.265298    0.491201    1.924075
     29          1           0        1.141798   -0.037984   -1.832368
     30          1           0       -1.313255    0.247270    3.144542
     31          1           0       -3.453696   -0.282334   -0.564328
     32          1           0       -1.315342   -0.225932   -1.825639
     33          1           0       -3.458069    1.032008    3.858992
     34          1           0       -3.238789   -0.701143    4.024553
     35          1           0        4.654911    0.159582   -2.526989
     36          1           0        3.203996   -0.876448   -2.493851
     37          1           0        3.038418    0.889251   -2.689147
     38          1           0        5.670087    0.384063   -0.718921
     39          1           0        4.891080    1.323394    0.573581
     40          1           0        4.997067   -0.455318    0.698539
     41          1           0       -5.967372    0.700180    3.717164
     42          1           0       -5.743109   -1.037606    3.883512
     43          1           0       -4.917617    1.062728    5.982078
     44          1           0       -4.662075   -0.676680    6.146406
     45          1           0       -7.410251    0.679494    5.852517
     46          1           0       -7.148440   -1.058930    6.019876
     47          1           0       -6.364652    1.060474    8.111326
     48          1           0       -6.079633   -0.674519    8.276937
     49          1           0       -8.850040    0.636903    7.985403
     50          1           0       -8.560975   -1.097113    8.152717
     51          1           0       -7.803963    1.032912   10.243000
     52          1           0       -7.500112   -0.698796   10.409097
     53          1           0      -10.284018    0.583974   10.118492
     54          1           0       -9.977898   -1.147250   10.284893
     55          1           0       -9.238498    0.987965   12.376795
     56          1           0       -8.924170   -0.742198   12.542424
     57          1           0      -11.713516    0.525332   12.251564
     58          1           0      -11.398526   -1.203903   12.415060
     59          1           0      -10.694805    0.933836   14.538612
     60          1           0      -10.377751   -0.808603   14.703296
     61          1           0      -12.053757   -0.212787   14.628907
 ---------------------------------------------------------------------
 Rotational constants (GHZ):      0.6297308      0.0325810      0.0310618
 Standard basis: CC-pVDZ (5D, 7F)
   539 basis functions,  1103 primitive gaussians,   565 cartesian basis functions
    97 alpha electrons       97 beta electrons
       nuclear repulsion energy      1993.6277877280 Hartrees.
 NAtoms=   61 NActive=   61 NUniq=   61 SFac= 1.00D+00 NAtFMM=   60 NAOKFM=T Big=T
 Integral buffers will be    131072 words long.
 Raffenetti 1 integral format.
 Two-electron integral symmetry is turned off.
 ------------------------------------------------------------------------------
 Polarizable Continuum Model (PCM)
 =================================
 Model                : PCM (using non-symmetric T matrix).
 Atomic radii         : UFF (Universal Force Field).
 Polarization charges : Total charges.
 Charge compensation  : None.
 Solution method      : On-the-fly selection.
 Cavity type          : Scaled VdW (van der Waals Surface) (Alpha=1.100).
 Cavity algorithm     : GePol (No added spheres)
                        Default sphere list used, NSphG=   61.
                        Lebedev-Laikov grids with approx.  5.0 points / Ang**2.
                        Smoothing algorithm: Karplus/York (Gamma=1.0000).
                        Polarization charges: spherical gaussians, with
                                              point-specific exponents (IZeta= 3).
                        Self-potential: point-specific (ISelfS= 7).
                        Self-field    : sphere-specific E.n sum rule (ISelfD= 2).
 1st derivatives      : Analytical E(r).r(x)/FMM algorithm (CHGder, D1EAlg=3).
                        Cavity 1st derivative terms included.
 Solvent              : Water, Eps=  78.355300 Eps(inf)=   1.777849
 ------------------------------------------------------------------------------
 One-electron integrals computed using PRISM.
 NBasis=   539 RedAO= T EigKep=  1.65D-04  NBF=   539
 NBsUse=   539 1.00D-06 EigRej= -1.00D+00 NBFU=   539
 Initial guess from the checkpoint file:  "L0tail.chk"
 B after Tr=     0.000000    0.000000    0.000000
         Rot=    1.000000    0.000000    0.000000    0.000000 Ang=   0.00 deg.
 Requested convergence on RMS density matrix=1.00D-08 within 128 cycles.
 Requested convergence on MAX density matrix=1.00D-06.
 Requested convergence on             energy=1.00D-06.
 No special actions if energy rises.
 Inv3:  Mode=1 IEnd=    51866892.
 Iteration    1 A*A^-1 deviation from unit magnitude is 9.44D-15 for   4138.
 Iteration    1 A*A^-1 deviation from orthogonality  is 4.53D-15 for   4156   3184.
 Iteration    1 A^-1*A deviation from unit magnitude is 8.44D-15 for   4138.
 Iteration    1 A^-1*A deviation from orthogonality  is 2.05D-10 for   2459   2408.
 Iteration    2 A*A^-1 deviation from unit magnitude is 3.22D-15 for   1030.
 Iteration    2 A*A^-1 deviation from orthogonality  is 2.69D-15 for   3303   1169.
 Iteration    2 A^-1*A deviation from unit magnitude is 1.11D-15 for   1445.
 Iteration    2 A^-1*A deviation from orthogonality  is 3.98D-16 for   2942    989.
 Error on total polarization charges =  0.02073
 SCF Done:  E(RCAM-B3LYP) =  -1065.07348799     A.U. after   12 cycles
            NFock= 12  Conv=0.48D-08     -V/T= 2.0076
 DoSCS=F DFT=T ScalE2(SS,OS)=  1.000000  1.000000
 ExpMin= 1.22D-01 ExpMax= 1.17D+04 ExpMxC= 4.01D+02 IAcc=3 IRadAn=         5 AccDes= 0.00D+00
 HarFok:  IExCor=  205 AccDes= 0.00D+00 IRadAn=         5 IDoV=-2 UseB2=F ITyADJ=14
 ICtDFT= 12500011 ScaDFX=  1.000000  1.000000  1.000000  1.000000
 Range of M.O.s used for correlation:    27   539
 NBasis=   539 NAE=    97 NBE=    97 NFC=    26 NFV=     0
 NROrb=    513 NOA=    71 NOB=    71 NVA=   442 NVB=   442

 **** Warning!!: The largest alpha MO coefficient is  0.12961041D+02

 Would need an additional         57172800000 words for in-memory AO integral storage.
 NEqPCM:  Using equilibrium solvation (IEInf=0, Eps=  78.3553, EpsInf=   1.7778)
    12 initial guesses have been made.
 Convergence on wavefunction:    0.000001000000000
 Iteration     1 Dimension    12 NMult     0 NNew     12
 CISAX will form    12 AO SS matrices at one time.
 New state      3 was old state      5
 Iteration     2 Dimension    18 NMult    12 NNew      6
 Iteration     3 Dimension    24 NMult    18 NNew      6
 Iteration     4 Dimension    30 NMult    24 NNew      6
 Iteration     5 Dimension    36 NMult    30 NNew      6
 Iteration     6 Dimension    42 NMult    36 NNew      6
 Iteration     7 Dimension    48 NMult    42 NNew      6
 Iteration     8 Dimension    54 NMult    48 NNew      6
 Iteration     9 Dimension    60 NMult    54 NNew      6
 Iteration    10 Dimension    66 NMult    60 NNew      6
 Iteration    11 Dimension    68 NMult    66 NNew      2
 ***********************************************************************
 Excited states from <AA,BB:AA,BB> singles matrix:
 ***********************************************************************
 
 Ground to excited state transition densities written to RWF  633
 Ground to excited state transition electric dipole moments (Au):
       state          X           Y           Z        Dip. S.      Osc.
         1         2.8025      0.2068     -0.0897      7.9051      0.7081
         2         1.1919      0.0243     -0.7232      1.9444      0.1919
         3         0.0041     -0.0233      0.0001      0.0006      0.0001
 Ground to excited state transition velocity dipole moments (Au):
       state          X           Y           Z        Dip. S.      Osc.
         1        -0.3652     -0.0277      0.0030      0.1342      0.6658
         2        -0.1734     -0.0031      0.1096      0.0421      0.1896
         3        -0.0006      0.0050     -0.0001      0.0000      0.0001
 Ground to excited state transition magnetic dipole moments (Au):
       state          X           Y           Z
         1         0.0708     -0.7904      0.1241
         2        -0.0059      0.2276      0.0015
         3        -0.8246     -0.1152     -0.4350
 Ground to excited state transition velocity quadrupole moments (Au):
       state          XX          YY          ZZ          XY          XZ          YZ
         1        -0.0789     -0.0286      0.0505     -0.0687     -0.5188     -0.0414
         2         0.5851     -0.0019      0.1485      0.0304     -0.1100      0.0113
         3         0.0057      0.0059     -0.0126     -0.0523     -0.0009      0.0684
 <0|del|b> * <b|rxdel|0> + <0|del|b> * <b|delr+rdel|0>
 Rotatory Strengths (R) in cgs (10**-40 erg-esu-cm/Gauss)
       state          XX          YY          ZZ    R(velocity)    E-M Angle
         1        20.2067    -26.6738    -12.6027     -6.3566       90.71
         2         5.8584     -9.7754      6.2493      0.7774       89.40
         3        -1.2013      1.2301     -0.0317     -0.0009       90.00
 1/2[<0|r|b>*<b|rxdel|0> + (<0|rxdel|b>*<b|r|0>)*]
 Rotatory Strengths (R) in cgs (10**-40 erg-esu-cm/Gauss)
       state          XX          YY          ZZ     R(length)
         1      -140.3088    115.5998      7.8724     -5.6122
         2         4.9839     -3.9158      0.7701      0.6127
         3         2.3948     -1.8952      0.0453      0.1817
  1/2[<0|del|b>*<b|r|0> + (<0|r|b>*<b|del|0>)*] (Au)
       state          X           Y           Z        Dip. S.   Osc.(frdel)
         1        -1.0236     -0.0057     -0.0003      1.0296      0.6864
         2        -0.2066     -0.0001     -0.0793      0.2860      0.1907
         3         0.0000     -0.0001      0.0000      0.0001      0.0001

 Excitation energies and oscillator strengths:
 
 Excited state symmetry could not be determined.
 Excited State   1:      Singlet-?Sym    3.6562 eV  339.11 nm  f=0.7081  <S**2>=0.000
      97 -> 98         0.67179
      97 -> 99        -0.16840
 This state for optimization and/or second-order correction.
 Total Energy, E(TD-HF/TD-KS) =  -1064.93912479    
 Copying the excited state density for this state as the 1-particle RhoCI density.
 
 Excited state symmetry could not be determined.
 Excited State   2:      Singlet-?Sym    4.0276 eV  307.84 nm  f=0.1919  <S**2>=0.000
      96 -> 98         0.32953
      97 -> 98         0.15063
      97 -> 99         0.58535
 
 Excited state symmetry could not be determined.
 Excited State   3:      Singlet-?Sym    4.1017 eV  302.28 nm  f=0.0001  <S**2>=0.000
      95 -> 98         0.60034
      95 -> 99         0.24613
      95 ->100        -0.16418
      95 ->101        -0.19230
 SavETr:  write IOETrn=   770 NScale= 10 NData=  16 NLR=1 NState=    3 LETran=      64.
          IDoAtm=11111111111111111111111111111111111111111111111111
          IDoAtm=11111111111
 NEqPCM:  Using equilibrium solvation (IEInf=0, Eps=  78.3553, EpsInf=   1.7778)
          Differentiating once with respect to electric field.
                with respect to dipole field.
          Differentiating once with respect to nuclear coordinates.
          There are     1 degrees of freedom in the 1st order CPHF.  IDoFFX=0 NUNeed=     1.
 LinEq1:  Iter=  0 NonCon=     1 RMS=2.62D-03 Max=1.84D-01 NDo=     1
 AX will form     1 AO Fock derivatives at one time.
 LinEq1:  Iter=  1 NonCon=     1 RMS=9.08D-04 Max=6.13D-02 NDo=     1
 LinEq1:  Iter=  2 NonCon=     1 RMS=4.91D-04 Max=2.74D-02 NDo=     1
 LinEq1:  Iter=  3 NonCon=     1 RMS=2.26D-04 Max=2.79D-02 NDo=     1
 LinEq1:  Iter=  4 NonCon=     1 RMS=1.17D-04 Max=5.67D-03 NDo=     1
 LinEq1:  Iter=  5 NonCon=     1 RMS=4.66D-05 Max=3.06D-03 NDo=     1
 LinEq1:  Iter=  6 NonCon=     1 RMS=2.27D-05 Max=1.42D-03 NDo=     1
 LinEq1:  Iter=  7 NonCon=     1 RMS=1.18D-05 Max=6.22D-04 NDo=     1
 LinEq1:  Iter=  8 NonCon=     1 RMS=5.31D-06 Max=2.15D-04 NDo=     1
 LinEq1:  Iter=  9 NonCon=     1 RMS=3.60D-06 Max=1.65D-04 NDo=     1
 LinEq1:  Iter= 10 NonCon=     1 RMS=1.81D-06 Max=1.14D-04 NDo=     1
 LinEq1:  Iter= 11 NonCon=     1 RMS=7.91D-07 Max=5.94D-05 NDo=     1
 LinEq1:  Iter= 12 NonCon=     1 RMS=3.40D-07 Max=1.54D-05 NDo=     1
 LinEq1:  Iter= 13 NonCon=     1 RMS=1.84D-07 Max=1.71D-05 NDo=     1
 LinEq1:  Iter= 14 NonCon=     1 RMS=8.28D-08 Max=4.54D-06 NDo=     1
 LinEq1:  Iter= 15 NonCon=     1 RMS=4.08D-08 Max=1.83D-06 NDo=     1
 LinEq1:  Iter= 16 NonCon=     1 RMS=1.41D-08 Max=9.77D-07 NDo=     1
 LinEq1:  Iter= 17 NonCon=     1 RMS=8.27D-09 Max=4.83D-07 NDo=     1
 LinEq1:  Iter= 18 NonCon=     1 RMS=2.31D-09 Max=1.16D-07 NDo=     1
 LinEq1:  Iter= 19 NonCon=     1 RMS=1.14D-09 Max=9.39D-08 NDo=     1
 LinEq1:  Iter= 20 NonCon=     1 RMS=4.52D-10 Max=2.15D-08 NDo=     1
 LinEq1:  Iter= 21 NonCon=     1 RMS=1.61D-10 Max=8.35D-09 NDo=     1
 LinEq1:  Iter= 22 NonCon=     1 RMS=7.27D-11 Max=3.02D-09 NDo=     1
 LinEq1:  Iter= 23 NonCon=     1 RMS=2.41D-11 Max=1.29D-09 NDo=     1
 LinEq1:  Iter= 24 NonCon=     0 RMS=1.05D-11 Max=3.83D-10 NDo=     1
 Linear equations converged to 1.000D-10 1.000D-09 after    24 iterations.
 End of Minotr F.D. properties file   721 does not exist.
 End of Minotr F.D. properties file   722 does not exist.
 End of Minotr F.D. properties file   788 does not exist.

 **********************************************************************

            Population analysis using the SCF density.

 **********************************************************************

 Alpha  occ. eigenvalues --  -19.20359 -14.42659 -10.35067 -10.31330 -10.29102
 Alpha  occ. eigenvalues --  -10.28999 -10.27924 -10.27795 -10.27300 -10.27032
 Alpha  occ. eigenvalues --  -10.26866 -10.26739 -10.26702 -10.26476 -10.26286
 Alpha  occ. eigenvalues --  -10.25457 -10.25321 -10.25074 -10.25069 -10.24904
 Alpha  occ. eigenvalues --  -10.24853 -10.24828 -10.24817 -10.24808 -10.24795
 Alpha  occ. eigenvalues --  -10.24650  -1.11768  -1.03719  -0.95923  -0.90591
 Alpha  occ. eigenvalues --   -0.89420  -0.88299  -0.86544  -0.85843  -0.83783
 Alpha  occ. eigenvalues --   -0.82942  -0.81612  -0.79849  -0.79269  -0.76206
 Alpha  occ. eigenvalues --   -0.74570  -0.71213  -0.69952  -0.68397  -0.67359
 Alpha  occ. eigenvalues --   -0.66038  -0.64912  -0.64285  -0.64111  -0.61491
 Alpha  occ. eigenvalues --   -0.59557  -0.58306  -0.56346  -0.55380  -0.54371
 Alpha  occ. eigenvalues --   -0.53895  -0.53536  -0.53480  -0.52592  -0.51656
 Alpha  occ. eigenvalues --   -0.50263  -0.50170  -0.49944  -0.49317  -0.48838
 Alpha  occ. eigenvalues --   -0.48332  -0.47799  -0.47656  -0.46962  -0.46560
 Alpha  occ. eigenvalues --   -0.46417  -0.46198  -0.45028  -0.44632  -0.44463
 Alpha  occ. eigenvalues --   -0.43646  -0.42796  -0.42593  -0.42239  -0.41366
 Alpha  occ. eigenvalues --   -0.40594  -0.39861  -0.39675  -0.39431  -0.38900
 Alpha  occ. eigenvalues --   -0.38871  -0.38413  -0.37927  -0.37924  -0.37545
 Alpha  occ. eigenvalues --   -0.37497  -0.35608  -0.35476  -0.32922  -0.31550
 Alpha  occ. eigenvalues --   -0.28459  -0.24049
 Alpha virt. eigenvalues --   -0.01778   0.01012   0.06803   0.08352   0.10351
 Alpha virt. eigenvalues --    0.10480   0.10788   0.11394   0.12177   0.12190
 Alpha virt. eigenvalues --    0.12681   0.12774   0.13353   0.13718   0.14070
 Alpha virt. eigenvalues --    0.14299   0.14867   0.15323   0.16081   0.16985
 Alpha virt. eigenvalues --    0.17100   0.17171   0.18306   0.19004   0.19118
 Alpha virt. eigenvalues --    0.19383   0.19541   0.20046   0.20332   0.20532
 Alpha virt. eigenvalues --    0.20646   0.20662   0.20944   0.22121   0.22173
 Alpha virt. eigenvalues --    0.22491   0.22654   0.22763   0.23876   0.24507
 Alpha virt. eigenvalues --    0.24871   0.25201   0.25753   0.26050   0.26558
 Alpha virt. eigenvalues --    0.27176   0.28756   0.28890   0.29014   0.29380
 Alpha virt. eigenvalues --    0.30671   0.31025   0.32076   0.32818   0.33345
 Alpha virt. eigenvalues --    0.34991   0.35886   0.36487   0.37693   0.38659
 Alpha virt. eigenvalues --    0.39462   0.39921   0.42280   0.43515   0.44362
 Alpha virt. eigenvalues --    0.45231   0.46613   0.47094   0.47320   0.48204
 Alpha virt. eigenvalues --    0.48330   0.48616   0.49065   0.49548   0.49618
 Alpha virt. eigenvalues --    0.50409   0.50526   0.51047   0.52083   0.52527
 Alpha virt. eigenvalues --    0.52881   0.53679   0.53861   0.54068   0.54584
 Alpha virt. eigenvalues --    0.55073   0.55278   0.56123   0.56412   0.57211
 Alpha virt. eigenvalues --    0.57673   0.57928   0.58420   0.58785   0.58935
 Alpha virt. eigenvalues --    0.59533   0.59994   0.60179   0.61366   0.62342
 Alpha virt. eigenvalues --    0.63698   0.64589   0.64922   0.65717   0.65830
 Alpha virt. eigenvalues --    0.66934   0.67589   0.67930   0.68357   0.68429
 Alpha virt. eigenvalues --    0.69427   0.69558   0.69751   0.70251   0.70329
 Alpha virt. eigenvalues --    0.70483   0.70691   0.70908   0.71098   0.71468
 Alpha virt. eigenvalues --    0.71620   0.71655   0.72252   0.72324   0.72330
 Alpha virt. eigenvalues --    0.72546   0.72665   0.73043   0.73364   0.73489
 Alpha virt. eigenvalues --    0.73625   0.73948   0.74044   0.74118   0.74426
 Alpha virt. eigenvalues --    0.75037   0.75109   0.75643   0.75793   0.76112
 Alpha virt. eigenvalues --    0.76767   0.76918   0.77230   0.77467   0.77639
 Alpha virt. eigenvalues --    0.77797   0.78141   0.78234   0.78478   0.79668
 Alpha virt. eigenvalues --    0.80063   0.80466   0.81093   0.81843   0.82161
 Alpha virt. eigenvalues --    0.82336   0.82867   0.83546   0.85752   0.86084
 Alpha virt. eigenvalues --    0.87983   0.88579   0.88862   0.89615   0.90956
 Alpha virt. eigenvalues --    0.93022   0.93538   0.94378   0.94755   0.95181
 Alpha virt. eigenvalues --    0.95469   0.96263   0.96849   0.97481   0.99589
 Alpha virt. eigenvalues --    0.99682   1.00267   1.01935   1.02695   1.04534
 Alpha virt. eigenvalues --    1.04779   1.05466   1.05632   1.07337   1.08798
 Alpha virt. eigenvalues --    1.09065   1.09426   1.09515   1.10722   1.12928
 Alpha virt. eigenvalues --    1.13963   1.14221   1.15418   1.15539   1.17102
 Alpha virt. eigenvalues --    1.17552   1.18623   1.19890   1.20616   1.24308
 Alpha virt. eigenvalues --    1.26353   1.27189   1.27534   1.27568   1.27910
 Alpha virt. eigenvalues --    1.28082   1.28141   1.28799   1.28895   1.29813
 Alpha virt. eigenvalues --    1.29935   1.30511   1.30923   1.30996   1.31216
 Alpha virt. eigenvalues --    1.32314   1.33494   1.34913   1.36109   1.37956
 Alpha virt. eigenvalues --    1.38577   1.39570   1.40641   1.42535   1.43241
 Alpha virt. eigenvalues --    1.43660   1.45410   1.46498   1.46824   1.47431
 Alpha virt. eigenvalues --    1.47797   1.48108   1.48400   1.49256   1.49583
 Alpha virt. eigenvalues --    1.49736   1.50036   1.51823   1.52249   1.52599
 Alpha virt. eigenvalues --    1.53237   1.53918   1.55199   1.55655   1.57380
 Alpha virt. eigenvalues --    1.57629   1.58843   1.59583   1.60965   1.62267
 Alpha virt. eigenvalues --    1.62982   1.63480   1.64951   1.65763   1.66841
 Alpha virt. eigenvalues --    1.66893   1.67143   1.68559   1.68897   1.69178
 Alpha virt. eigenvalues --    1.69812   1.69967   1.70161   1.70401   1.70608
 Alpha virt. eigenvalues --    1.70828   1.71082   1.71606   1.71838   1.72102
 Alpha virt. eigenvalues --    1.72166   1.72356   1.72966   1.73424   1.73531
 Alpha virt. eigenvalues --    1.73861   1.74152   1.74862   1.74961   1.75514
 Alpha virt. eigenvalues --    1.75759   1.76135   1.76275   1.76928   1.77493
 Alpha virt. eigenvalues --    1.77535   1.77881   1.77956   1.78348   1.78690
 Alpha virt. eigenvalues --    1.78861   1.79083   1.79579   1.79896   1.80148
 Alpha virt. eigenvalues --    1.80217   1.80346   1.80969   1.81507   1.81765
 Alpha virt. eigenvalues --    1.82269   1.82659   1.83284   1.83664   1.83794
 Alpha virt. eigenvalues --    1.84015   1.84973   1.85434   1.86022   1.86276
 Alpha virt. eigenvalues --    1.87150   1.87604   1.87795   1.88151   1.88766
 Alpha virt. eigenvalues --    1.88971   1.89342   1.89430   1.90320   1.91185
 Alpha virt. eigenvalues --    1.91678   1.92625   1.93455   1.94103   1.94991
 Alpha virt. eigenvalues --    1.96886   1.97201   1.98067   1.98315   1.99771
 Alpha virt. eigenvalues --    2.01810   2.02546   2.03703   2.04232   2.04336
 Alpha virt. eigenvalues --    2.04573   2.05172   2.05766   2.06356   2.06838
 Alpha virt. eigenvalues --    2.08050   2.08542   2.09464   2.10517   2.11984
 Alpha virt. eigenvalues --    2.12168   2.13210   2.13509   2.14393   2.14984
 Alpha virt. eigenvalues --    2.15152   2.16195   2.16929   2.17454   2.18568
 Alpha virt. eigenvalues --    2.19657   2.20191   2.20972   2.23627   2.25026
 Alpha virt. eigenvalues --    2.26165   2.26820   2.26968   2.27618   2.28732
 Alpha virt. eigenvalues --    2.29078   2.29469   2.30600   2.31747   2.32624
 Alpha virt. eigenvalues --    2.33585   2.33862   2.34008   2.34776   2.35504
 Alpha virt. eigenvalues --    2.36075   2.36460   2.36974   2.37435   2.38181
 Alpha virt. eigenvalues --    2.39447   2.40087   2.40229   2.40560   2.41024
 Alpha virt. eigenvalues --    2.41351   2.41762   2.42179   2.43422   2.45031
 Alpha virt. eigenvalues --    2.45228   2.46221   2.48701   2.48923   2.49757
 Alpha virt. eigenvalues --    2.49796   2.49985   2.50787   2.51881   2.52171
 Alpha virt. eigenvalues --    2.52954   2.53599   2.55618   2.55673   2.56803
 Alpha virt. eigenvalues --    2.57149   2.57867   2.60588   2.61218   2.62554
 Alpha virt. eigenvalues --    2.63334   2.64551   2.64900   2.65740   2.67215
 Alpha virt. eigenvalues --    2.67974   2.68828   2.71272   2.71777   2.71943
 Alpha virt. eigenvalues --    2.72942   2.74803   2.75940   2.78212   2.78384
 Alpha virt. eigenvalues --    2.80423   2.80942   2.83072   2.83117   2.84560
 Alpha virt. eigenvalues --    2.87525   2.88070   2.91710   2.93075   2.97741
 Alpha virt. eigenvalues --    3.02443   3.13338   3.15442   3.37452   3.50106
 Alpha virt. eigenvalues --    3.54870   3.60611
          Condensed to atoms (all electrons):
 Mulliken charges:
               1
     1  C    0.014344
     2  C   -0.004745
     3  C    0.018004
     4  C   -0.024065
     5  C    0.183682
     6  C   -0.064623
     7  C    0.007564
     8  C    0.046785
     9  C   -0.021828
    10  C   -0.006633
    11  N   -0.320521
    12  C    0.066495
    13  C    0.053818
    14  C   -0.035361
    15  C    0.014125
    16  C   -0.018689
    17  C   -0.012822
    18  C   -0.013189
    19  C   -0.014442
    20  C   -0.014597
    21  C   -0.016089
    22  C   -0.021373
    23  C   -0.047032
    24  C   -0.021925
    25  C    0.072027
    26  O   -0.251125
    27  H   -0.019787
    28  H   -0.009259
    29  H   -0.033779
    30  H   -0.024872
    31  H   -0.035391
    32  H   -0.024876
    33  H    0.056347
    34  H    0.056277
    35  H    0.044909
    36  H    0.039059
    37  H    0.041510
    38  H    0.045554
    39  H    0.044270
    40  H    0.042052
    41  H    0.012304
    42  H    0.011820
    43  H    0.009370
    44  H    0.009208
    45  H    0.008082
    46  H    0.008043
    47  H    0.007316
    48  H    0.007194
    49  H    0.006943
    50  H    0.006919
    51  H    0.006872
    52  H    0.006785
    53  H    0.006665
    54  H    0.006656
    55  H    0.006639
    56  H    0.006575
    57  H    0.010209
    58  H    0.010243
    59  H    0.021894
    60  H    0.021893
    61  H    0.018573
 Sum of Mulliken charges =   0.00000
 Mulliken charges with hydrogens summed into heavy atoms:
               1
     1  C    0.014344
     2  C   -0.004745
     3  C   -0.001783
     4  C   -0.033324
     5  C    0.183682
     6  C   -0.098402
     7  C   -0.017311
     8  C    0.011394
     9  C   -0.021828
    10  C   -0.031505
    11  N   -0.320521
    12  C    0.198371
    13  C    0.053818
    14  C    0.077263
    15  C    0.038249
    16  C   -0.000111
    17  C    0.003303
    18  C    0.001320
    19  C   -0.000581
    20  C   -0.000940
    21  C   -0.002769
    22  C   -0.008160
    23  C   -0.026581
    24  C    0.040435
    25  C    0.197505
    26  O   -0.251125
 Electronic spatial extent (au):  <R**2>=          53868.3970
 Charge=              0.0000 electrons
 Dipole moment (field-independent basis, Debye):
    X=              8.0622    Y=              0.6157    Z=              0.2858  Tot=              8.0907
 Quadrupole moment (field-independent basis, Debye-Ang):
   XX=           -163.3949   YY=           -164.3007   ZZ=           -145.5379
   XY=             -0.4971   XZ=             -4.5613   YZ=              1.5063
 Traceless Quadrupole moment (field-independent basis, Debye-Ang):
   XX=             -5.6504   YY=             -6.5562   ZZ=             12.2066
   XY=             -0.4971   XZ=             -4.5613   YZ=              1.5063
 Octapole moment (field-independent basis, Debye-Ang**2):
  XXX=           1923.4713  YYY=            -20.7712  ZZZ=          -2082.2987  XYY=            541.9963
  XXY=             15.5178  XXZ=           -718.2039  XZZ=            561.6569  YZZ=             -7.8145
  YYZ=           -678.1132  XYZ=             -2.7027
 Hexadecapole moment (field-independent basis, Debye-Ang**3):
 XXXX=         -34800.1025 YYYY=           -300.5601 ZZZZ=         -41818.9601 XXXY=           -293.0924
 XXXZ=          17642.3523 YYYX=           -229.9671 YYYZ=             87.0313 ZZZX=          17893.8537
 ZZZY=             20.9326 XXYY=          -5711.7365 XXZZ=         -12608.6471 YYZZ=          -6757.0154
 XXYZ=             67.9900 YYXZ=           5743.2994 ZZXY=            -56.1265
 N-N= 1.993627787728D+03 E-N=-6.457332683556D+03  KE= 1.057017103731D+03
 D1PCM: PCM CHGder 1st derivatives, ID1Alg=3 FixD1E=F DoIter=F DoCFld=F I1PDM=6.
 Calling FoFJK, ICntrl=  10005127 FMM=T ISym2X=0 I1Cent= 0 IOpClX= 0 NMat=1 NMatS=1 NMatT=0.
 -------------------------------------------------------------------
 Center     Atomic                   Forces (Hartrees/Bohr)
 Number     Number              X              Y              Z
 -------------------------------------------------------------------
      1        6           0.021879215    0.001042210   -0.005831965
      2        6          -0.017483858   -0.000914041    0.007548103
      3        6           0.006041124    0.000714967    0.002036419
      4        6           0.009599559   -0.000468097   -0.012398285
      5        6           0.032298420    0.005788354    0.030628942
      6        6          -0.038999854   -0.003106088   -0.004001466
      7        6          -0.006155697   -0.001226785   -0.007641524
      8        6          -0.002891216    0.001019723    0.013112323
      9        6          -0.036278060   -0.004773122   -0.017335528
     10        6           0.038735032    0.004286962    0.009191073
     11        7          -0.013031492   -0.002293382    0.004203907
     12        6           0.001688343    0.000386249   -0.003496769
     13        6           0.017747875    0.000972453   -0.004289372
     14        6          -0.000718629   -0.000324764   -0.002836898
     15        6           0.002232036    0.000392495    0.000985737
     16        6          -0.001757351   -0.000383568   -0.001003566
     17        6           0.001439498    0.000323458    0.001060239
     18        6          -0.001388169   -0.000333536   -0.000844643
     19        6           0.001271706    0.000302150    0.000874315
     20        6          -0.001256825   -0.000319768   -0.000821833
     21        6           0.001244775    0.000305223    0.000809939
     22        6          -0.001218440   -0.000321719   -0.000876445
     23        6           0.001563502    0.000338680    0.000510505
     24        6           0.000385875   -0.000115545   -0.001906185
     25        6           0.001590842    0.000055141   -0.004778944
     26        8          -0.012474837   -0.001460181   -0.004313094
     27        1          -0.000149109   -0.000126034   -0.001180821
     28        1          -0.000198992   -0.000086652   -0.001129534
     29        1          -0.000357065    0.000054297    0.000351241
     30        1           0.000473821   -0.000047392   -0.001313153
     31        1           0.000292072    0.000078285    0.000645778
     32        1           0.000209529    0.000074406    0.000687633
     33        1           0.000194138   -0.000221035    0.000563101
     34        1           0.000125019    0.000240815    0.000423662
     35        1          -0.001153359    0.000023452    0.001065170
     36        1           0.001355511    0.001703309    0.002123365
     37        1           0.001495458   -0.001050578    0.002226694
     38        1          -0.001643751   -0.000109129    0.000094760
     39        1          -0.002842901   -0.001054305   -0.000775326
     40        1          -0.003135149    0.000563663   -0.000959884
     41        1           0.000603382   -0.000666726    0.000274253
     42        1           0.000399998    0.000829764    0.000152718
     43        1          -0.000510556   -0.000819092   -0.000305536
     44        1          -0.000711899    0.000574346   -0.000453479
     45        1           0.000718624   -0.000586203    0.000483980
     46        1           0.000498382    0.000843164    0.000344136
     47        1          -0.000504872   -0.000863447   -0.000339837
     48        1          -0.000741993    0.000584776   -0.000491050
     49        1           0.000748016   -0.000585693    0.000494695
     50        1           0.000501801    0.000869919    0.000349215
     51        1          -0.000499449   -0.000877139   -0.000347289
     52        1          -0.000755210    0.000581299   -0.000497953
     53        1           0.000757254   -0.000581196    0.000494852
     54        1           0.000496736    0.000879172    0.000348609
     55        1          -0.000494249   -0.000886535   -0.000350164
     56        1          -0.000763556    0.000584169   -0.000502898
     57        1           0.000855415   -0.000625360    0.000438512
     58        1           0.000556353    0.000952846    0.000297565
     59        1          -0.000265252   -0.000874299   -0.000530984
     60        1          -0.000540734    0.000621668   -0.000674680
     61        1           0.000923213    0.000113996   -0.000592334
 -------------------------------------------------------------------
 Cartesian Forces:  Max     0.038999854 RMS     0.007054347

 GradGradGradGradGradGradGradGradGradGradGradGradGradGradGradGradGradGrad
 Berny optimization.
 FormGI is forming the generalized inverse of G from B-inverse, IUseBI=4.
 GSVD:  received Info=                   1 from GESDD.
 Internal  Forces:  Max     0.034503660 RMS     0.003642656
 Search for a local minimum.
 Step number   1 out of a maximum of  346
 All quantities printed in internal units (Hartrees-Bohrs-Radians)
 Mixed Optimization -- RFO/linear search
 Second derivative matrix not updated -- first step.
 ITU=  0
     Eigenvalues ---    0.00335   0.00336   0.00336   0.00337   0.00338
     Eigenvalues ---    0.00339   0.00341   0.00345   0.00361   0.00386
     Eigenvalues ---    0.00450   0.00692   0.00948   0.00976   0.01239
     Eigenvalues ---    0.01474   0.01696   0.01724   0.01780   0.01819
     Eigenvalues ---    0.01883   0.01905   0.01965   0.01979   0.02012
     Eigenvalues ---    0.02039   0.02057   0.02066   0.02083   0.02166
     Eigenvalues ---    0.02195   0.03385   0.03386   0.03388   0.03390
     Eigenvalues ---    0.03391   0.03392   0.03420   0.03430   0.03480
     Eigenvalues ---    0.03845   0.04775   0.04775   0.04775   0.04775
     Eigenvalues ---    0.04776   0.04776   0.04784   0.04790   0.04807
     Eigenvalues ---    0.05254   0.05432   0.05485   0.07139   0.07226
     Eigenvalues ---    0.07511   0.07529   0.08404   0.08469   0.08470
     Eigenvalues ---    0.08517   0.08520   0.08521   0.08526   0.08527
     Eigenvalues ---    0.08532   0.09662   0.12255   0.12304   0.12306
     Eigenvalues ---    0.12340   0.12342   0.12343   0.12346   0.12347
     Eigenvalues ---    0.12350   0.13009   0.16000   0.16000   0.16000
     Eigenvalues ---    0.16000   0.16000   0.16000   0.16000   0.16000
     Eigenvalues ---    0.16000   0.16000   0.16000   0.16000   0.16000
     Eigenvalues ---    0.16000   0.16000   0.21880   0.21897   0.21898
     Eigenvalues ---    0.21905   0.21905   0.21905   0.21905   0.21905
     Eigenvalues ---    0.21905   0.21906   0.22255   0.22555   0.23489
     Eigenvalues ---    0.23522   0.24470   0.24776   0.24964   0.24975
     Eigenvalues ---    0.25000   0.25000   0.25000   0.25000   0.29187
     Eigenvalues ---    0.29195   0.29197   0.29198   0.29206   0.29212
     Eigenvalues ---    0.29227   0.29254   0.29369   0.29545   0.29997
     Eigenvalues ---    0.32942   0.32950   0.32966   0.32968   0.32969
     Eigenvalues ---    0.32971   0.32972   0.32975   0.32975   0.32980
     Eigenvalues ---    0.32982   0.32984   0.32986   0.32990   0.33043
     Eigenvalues ---    0.33045   0.33092   0.33096   0.33168   0.33174
     Eigenvalues ---    0.33195   0.33256   0.33265   0.33280   0.33284
     Eigenvalues ---    0.33295   0.33297   0.33441   0.34113   0.34123
     Eigenvalues ---    0.34441   0.34456   0.34619   0.34719   0.34909
     Eigenvalues ---    0.34966   0.36037   0.37443   0.37709   0.38981
     Eigenvalues ---    0.39288   0.39926   0.40537   0.42195   0.42596
     Eigenvalues ---    0.44049   0.46063   0.49112   0.49170   0.50260
     Eigenvalues ---    0.913741000.000001000.000001000.000001000.00000
     Eigenvalues --- 1000.000001000.000001000.000001000.000001000.00000
     Eigenvalues --- 1000.000001000.000001000.000001000.000001000.00000
     Eigenvalues --- 1000.000001000.000001000.000001000.000001000.00000
     Eigenvalues --- 1000.000001000.000001000.000001000.000001000.00000
     Eigenvalues --- 1000.000001000.000001000.000001000.000001000.00000
     Eigenvalues --- 1000.000001000.000001000.000001000.000001000.00000
     Eigenvalues --- 1000.000001000.000001000.000001000.000001000.00000
     Eigenvalues --- 1000.000001000.000001000.000001000.000001000.00000
     Eigenvalues --- 1000.000001000.000001000.000001000.000001000.00000
     Eigenvalues --- 1000.000001000.000001000.000001000.000001000.00000
     Eigenvalues --- 1000.000001000.000001000.000001000.000001000.00000
     Eigenvalues --- 1000.000001000.000001000.000001000.000001000.00000
     Eigenvalues --- 1000.000001000.000001000.000001000.000001000.00000
     Eigenvalues --- 1000.000001000.000001000.000001000.000001000.00000
     Eigenvalues --- 1000.000001000.000001000.000001000.000001000.00000
     Eigenvalues --- 1000.000001000.000001000.000001000.000001000.00000
     Eigenvalues --- 1000.000001000.000001000.000001000.000001000.00000
     Eigenvalues --- 1000.000001000.000001000.000001000.000001000.00000
     Eigenvalues --- 1000.000001000.000001000.000001000.000001000.00000
     Eigenvalues --- 1000.000001000.000001000.000001000.000001000.00000
     Eigenvalues --- 1000.000001000.000001000.000001000.000001000.00000
     Eigenvalues --- 1000.000001000.000001000.000001000.000001000.00000
     Eigenvalues --- 1000.000001000.000001000.000001000.000001000.00000
     Eigenvalues --- 1000.000001000.000001000.000001000.000001000.00000
     Eigenvalues --- 1000.000001000.000001000.000001000.000001000.00000
     Eigenvalues --- 1000.000001000.000001000.000001000.000001000.00000
     Eigenvalues --- 1000.000001000.000001000.000001000.000001000.00000
     Eigenvalues --- 1000.000001000.000001000.000001000.000001000.00000
     Eigenvalues --- 1000.000001000.000001000.000001000.000001000.00000
     Eigenvalues --- 1000.000001000.000001000.000001000.000001000.00000
     Eigenvalues --- 1000.000001000.000001000.000001000.000001000.00000
     Eigenvalues --- 1000.00000
 RFO step:  Lambda=-1.09351537D-02 EMin= 3.35120952D-03
 Linear search not attempted -- first point.
 Iteration  1 RMS(Cart)=  0.04580376 RMS(Int)=  0.00018959
 Iteration  2 RMS(Cart)=  0.00050412 RMS(Int)=  0.00003875
 Iteration  3 RMS(Cart)=  0.00000012 RMS(Int)=  0.00003875
 Iteration  1 RMS(Cart)=  0.00000277 RMS(Int)=  0.00000057
 Iteration  2 RMS(Cart)=  0.00000158 RMS(Int)=  0.00000063
 Iteration  3 RMS(Cart)=  0.00000090 RMS(Int)=  0.00000072
 Variable       Old X    -DE/DX   Delta X   Delta X   Delta X     New X
                                 (Linear)    (Quad)   (Total)
    R1        2.71459   0.00202   0.00000   0.00370   0.00368   2.71827
    R2        2.66949  -0.02233   0.00000  -0.05096  -0.05094   2.61855
    R3        2.70426   0.00886   0.00000   0.02001   0.02000   2.72427
    R4        2.69159   0.01202   0.00000   0.02843   0.02838   2.71998
    R5        2.67454  -0.01208   0.00000  -0.02673  -0.02672   2.64783
    R6        2.59574   0.00424   0.00000   0.00910   0.00908   2.60482
    R7        2.06567  -0.00119   0.00000  -0.00334  -0.00334   2.06232
    R8        2.72070  -0.01580   0.00000  -0.03812  -0.03809   2.68261
    R9        2.05730  -0.00076   0.00000  -0.00211  -0.00211   2.05518
   R10        2.65661   0.02470   0.00000   0.05360   0.05365   2.71027
   R11        2.59604  -0.01362   0.00000  -0.02651  -0.02651   2.56952
   R12        2.05823  -0.00035   0.00000  -0.00096  -0.00096   2.05726
   R13        2.59590  -0.00004   0.00000  -0.00056  -0.00057   2.59533
   R14        2.06592  -0.00069   0.00000  -0.00194  -0.00194   2.06398
   R15        2.70076  -0.01414   0.00000  -0.03299  -0.03300   2.66776
   R16        2.06133  -0.00057   0.00000  -0.00160  -0.00160   2.05973
   R17        2.62864   0.03450   0.00000   0.07250   0.07250   2.70114
   R18        2.81836  -0.01370   0.00000  -0.03983  -0.03983   2.77852
   R19        2.06298  -0.00130   0.00000  -0.00365  -0.00365   2.05933
   R20        2.75184  -0.00771   0.00000  -0.02000  -0.02000   2.73184
   R21        2.74791  -0.00064   0.00000  -0.00166  -0.00166   2.74625
   R22        2.07141  -0.00131   0.00000  -0.00371  -0.00371   2.06769
   R23        2.08604  -0.00143   0.00000  -0.00418  -0.00418   2.08186
   R24        2.08758  -0.00148   0.00000  -0.00433  -0.00433   2.08325
   R25        2.87969  -0.00456   0.00000  -0.01467  -0.01467   2.86502
   R26        2.32306   0.01294   0.00000   0.01400   0.01400   2.33706
   R27        2.88880  -0.00452   0.00000  -0.01474  -0.01474   2.87406
   R28        2.08884   0.00002   0.00000   0.00007   0.00007   2.08891
   R29        2.08746   0.00008   0.00000   0.00023   0.00023   2.08769
   R30        2.89477  -0.00404   0.00000  -0.01332  -0.01332   2.88145
   R31        2.08533  -0.00093   0.00000  -0.00271  -0.00271   2.08262
   R32        2.08589  -0.00093   0.00000  -0.00270  -0.00270   2.08319
   R33        2.89591  -0.00416   0.00000  -0.01373  -0.01373   2.88218
   R34        2.09070  -0.00100   0.00000  -0.00293  -0.00293   2.08777
   R35        2.09083  -0.00101   0.00000  -0.00296  -0.00296   2.08787
   R36        2.89562  -0.00417   0.00000  -0.01377  -0.01377   2.88185
   R37        2.09079  -0.00103   0.00000  -0.00303  -0.00303   2.08775
   R38        2.09076  -0.00103   0.00000  -0.00301  -0.00301   2.08775
   R39        2.89598  -0.00423   0.00000  -0.01396  -0.01396   2.88203
   R40        2.09087  -0.00104   0.00000  -0.00306  -0.00306   2.08780
   R41        2.09102  -0.00105   0.00000  -0.00309  -0.00309   2.08794
   R42        2.89576  -0.00422   0.00000  -0.01392  -0.01392   2.88184
   R43        2.09100  -0.00106   0.00000  -0.00311  -0.00311   2.08790
   R44        2.09095  -0.00105   0.00000  -0.00308  -0.00308   2.08787
   R45        2.89594  -0.00424   0.00000  -0.01400  -0.01400   2.88194
   R46        2.09095  -0.00105   0.00000  -0.00310  -0.00310   2.08786
   R47        2.09108  -0.00106   0.00000  -0.00312  -0.00312   2.08797
   R48        2.89531  -0.00421   0.00000  -0.01387  -0.01387   2.88144
   R49        2.09111  -0.00106   0.00000  -0.00312  -0.00312   2.08799
   R50        2.09105  -0.00106   0.00000  -0.00310  -0.00310   2.08796
   R51        2.89614  -0.00419   0.00000  -0.01384  -0.01384   2.88230
   R52        2.09139  -0.00106   0.00000  -0.00312  -0.00312   2.08827
   R53        2.09153  -0.00107   0.00000  -0.00315  -0.00315   2.08838
   R54        2.89239  -0.00372   0.00000  -0.01220  -0.01220   2.88019
   R55        2.08976  -0.00113   0.00000  -0.00332  -0.00332   2.08645
   R56        2.08973  -0.00113   0.00000  -0.00331  -0.00331   2.08642
   R57        2.08555  -0.00103   0.00000  -0.00299  -0.00299   2.08257
   R58        2.08562  -0.00103   0.00000  -0.00301  -0.00301   2.08262
   R59        2.08285  -0.00108   0.00000  -0.00314  -0.00314   2.07971
   R60        2.07124  -0.00143   0.00000  -0.00406  -0.00406   2.06718
   R61        2.08890  -0.00262   0.00000  -0.00765  -0.00765   2.08125
   R62        2.08710  -0.00256   0.00000  -0.00748  -0.00748   2.07962
    A1        2.09428  -0.00112   0.00000  -0.00582  -0.00584   2.08844
[...]
 Range of M.O.s used for correlation:    27   539
 NBasis=   539 NAE=    97 NBE=    97 NFC=    26 NFV=     0
 NROrb=    513 NOA=    71 NOB=    71 NVA=   442 NVB=   442

 **** Warning!!: The largest alpha MO coefficient is  0.13347366D+02

 Would need an additional         57065200000 words for in-memory AO integral storage.
     8 initial guesses have been made.
 Convergence on wavefunction:    0.001000000000000
 Iteration     1 Dimension     8 NMult     0 NNew      8
 CISAX will form     8 AO SS matrices at one time.
 Iteration     2 Dimension    12 NMult     8 NNew      4
 Iteration     3 Dimension    16 NMult    12 NNew      4
 Iteration     4 Dimension    20 NMult    16 NNew      4
 Iteration     5 Dimension    24 NMult    20 NNew      4
 Iteration     6 Dimension    28 NMult    24 NNew      4
 Iteration     7 Dimension    30 NMult    28 NNew      2
 Iteration     8 Dimension    32 NMult    30 NNew      2
 Iteration     9 Dimension    34 NMult    32 NNew      2
 ***********************************************************************
 Excited states from <AA,BB:AA,BB> singles matrix:
 ***********************************************************************
 
 Ground to excited state transition densities written to RWF  633
 Ground to excited state transition electric dipole moments (Au):
       state          X           Y           Z        Dip. S.      Osc.
         1         0.0000      0.0000      0.0000      0.0000      0.0000
         2         0.0000      0.0000      0.0000      0.0000      0.0000
 Ground to excited state transition velocity dipole moments (Au):
       state          X           Y           Z        Dip. S.      Osc.
         1         0.0000      0.0000      0.0000      0.0000      0.0000
         2         0.0000      0.0000      0.0000      0.0000      0.0000
 Ground to excited state transition magnetic dipole moments (Au):
       state          X           Y           Z
         1         0.0000      0.0000      0.0000
         2         0.0000      0.0000      0.0000
 Ground to excited state transition velocity quadrupole moments (Au):
       state          XX          YY          ZZ          XY          XZ          YZ
         1         0.0000      0.0000      0.0000      0.0000      0.0000      0.0000
         2         0.0000      0.0000      0.0000      0.0000      0.0000      0.0000
 <0|del|b> * <b|rxdel|0> + <0|del|b> * <b|delr+rdel|0>
 Rotatory Strengths (R) in cgs (10**-40 erg-esu-cm/Gauss)
       state          XX          YY          ZZ    R(velocity)    E-M Angle
         1         0.0000      0.0000      0.0000      0.0000       90.00
         2         0.0000      0.0000      0.0000      0.0000       90.00
 1/2[<0|r|b>*<b|rxdel|0> + (<0|rxdel|b>*<b|r|0>)*]
 Rotatory Strengths (R) in cgs (10**-40 erg-esu-cm/Gauss)
       state          XX          YY          ZZ     R(length)
         1         0.0000      0.0000      0.0000      0.0000
         2         0.0000      0.0000      0.0000      0.0000
  1/2[<0|del|b>*<b|r|0> + (<0|r|b>*<b|del|0>)*] (Au)
       state          X           Y           Z        Dip. S.   Osc.(frdel)
         1         0.0000      0.0000      0.0000      0.0000      0.0000
         2         0.0000      0.0000      0.0000      0.0000      0.0000

 Excitation energies and oscillator strengths:
 
 Excited state symmetry could not be determined.
 Excited State   1:      Triplet-?Sym    1.9375 eV  639.91 nm  f=0.0000  <S**2>=2.000
      94 -> 98        -0.14251
      96 -> 98         0.14524
      96 -> 99        -0.15940
      97 -> 98         0.64483
      97 <- 98         0.14774
 This state for optimization and/or second-order correction.
 Total Energy, E(TD-HF/TD-KS) =  -1064.98458005    
 Copying the excited state density for this state as the 1-particle RhoCI density.
 
 Excited state symmetry could not be determined.
 Excited State   2:      Triplet-?Sym    3.3608 eV  368.91 nm  f=0.0000  <S**2>=2.000
      94 -> 98        -0.18962
      96 -> 98         0.12147
      97 -> 99         0.62914
      97 ->100        -0.10947
 SavETr:  write IOETrn=   770 NScale= 10 NData=  16 NLR=1 NState=    2 LETran=      46.

 **********************************************************************

            Population analysis using the SCF density.

 **********************************************************************

 Alpha  occ. eigenvalues --  -19.18515 -14.43494 -10.33294 -10.31537 -10.30551
 Alpha  occ. eigenvalues --  -10.30488 -10.27580 -10.27579 -10.27216 -10.26795
 Alpha  occ. eigenvalues --  -10.26675 -10.26038 -10.25683 -10.25582 -10.25500
 Alpha  occ. eigenvalues --  -10.25319 -10.24884 -10.24620 -10.24593 -10.24576
 Alpha  occ. eigenvalues --  -10.24575 -10.24531 -10.24515 -10.24503 -10.24436
 Alpha  occ. eigenvalues --  -10.24295  -1.09325  -1.05111  -0.95346  -0.90155
 Alpha  occ. eigenvalues --   -0.89445  -0.88227  -0.86332  -0.85549  -0.83863
 Alpha  occ. eigenvalues --   -0.83144  -0.82108  -0.80167  -0.79286  -0.76539
 Alpha  occ. eigenvalues --   -0.74614  -0.70949  -0.70045  -0.67989  -0.67153
 Alpha  occ. eigenvalues --   -0.65785  -0.64753  -0.64050  -0.64008  -0.61318
 Alpha  occ. eigenvalues --   -0.59979  -0.58258  -0.55853  -0.55305  -0.54987
 Alpha  occ. eigenvalues --   -0.54201  -0.54126  -0.53292  -0.52386  -0.51501
 Alpha  occ. eigenvalues --   -0.49986  -0.49878  -0.49694  -0.49076  -0.48651
 Alpha  occ. eigenvalues --   -0.48566  -0.48070  -0.47861  -0.47321  -0.46997
 Alpha  occ. eigenvalues --   -0.46175  -0.45995  -0.45749  -0.44643  -0.44089
 Alpha  occ. eigenvalues --   -0.43352  -0.42846  -0.42013  -0.41990  -0.41059
 Alpha  occ. eigenvalues --   -0.40275  -0.39370  -0.39150  -0.39100  -0.38427
 Alpha  occ. eigenvalues --   -0.38377  -0.38108  -0.37799  -0.37605  -0.37397
 Alpha  occ. eigenvalues --   -0.37291  -0.35250  -0.35208  -0.32442  -0.29967
 Alpha  occ. eigenvalues --   -0.28338  -0.23387
 Alpha virt. eigenvalues --   -0.01908   0.02041   0.07152   0.08843   0.09148
 Alpha virt. eigenvalues --    0.10516   0.10743   0.11272   0.11767   0.11954
 Alpha virt. eigenvalues --    0.12229   0.12577   0.12802   0.13588   0.13833
 Alpha virt. eigenvalues --    0.14281   0.14554   0.15031   0.16119   0.16938
 Alpha virt. eigenvalues --    0.17187   0.17446   0.17517   0.18222   0.18453
 Alpha virt. eigenvalues --    0.18924   0.19312   0.19567   0.19766   0.20100
 Alpha virt. eigenvalues --    0.20581   0.20842   0.21266   0.21799   0.22472
 Alpha virt. eigenvalues --    0.22484   0.22846   0.23054   0.24316   0.25085
 Alpha virt. eigenvalues --    0.25186   0.25499   0.26221   0.26593   0.26914
 Alpha virt. eigenvalues --    0.27669   0.27871   0.29203   0.29330   0.29834
 Alpha virt. eigenvalues --    0.30189   0.31287   0.32492   0.33627   0.33877
 Alpha virt. eigenvalues --    0.35169   0.35821   0.37545   0.37774   0.39462
 Alpha virt. eigenvalues --    0.39682   0.40664   0.42470   0.42946   0.43844
 Alpha virt. eigenvalues --    0.45690   0.46799   0.47448   0.47669   0.48540
 Alpha virt. eigenvalues --    0.48556   0.49073   0.49188   0.49355   0.49980
 Alpha virt. eigenvalues --    0.50716   0.51176   0.51232   0.51841   0.53069
 Alpha virt. eigenvalues --    0.53127   0.53355   0.53831   0.54422   0.55165
 Alpha virt. eigenvalues --    0.55277   0.55374   0.56164   0.56655   0.56681
 Alpha virt. eigenvalues --    0.58261   0.58697   0.59076   0.59321   0.59664
 Alpha virt. eigenvalues --    0.60051   0.60511   0.60589   0.62059   0.62747
 Alpha virt. eigenvalues --    0.64380   0.64931   0.65214   0.65499   0.65589
 Alpha virt. eigenvalues --    0.66761   0.67457   0.68172   0.68510   0.68843
 Alpha virt. eigenvalues --    0.69039   0.69594   0.69746   0.70056   0.70273
 Alpha virt. eigenvalues --    0.70631   0.70866   0.71005   0.71369   0.71750
 Alpha virt. eigenvalues --    0.71778   0.71915   0.72089   0.72529   0.72576
 Alpha virt. eigenvalues --    0.72674   0.72814   0.73038   0.73352   0.73775
 Alpha virt. eigenvalues --    0.73951   0.74313   0.74354   0.74762   0.74955
 Alpha virt. eigenvalues --    0.75155   0.75198   0.75965   0.76006   0.76567
 Alpha virt. eigenvalues --    0.77007   0.77169   0.77626   0.77662   0.77941
 Alpha virt. eigenvalues --    0.78399   0.78422   0.78474   0.79048   0.79963
 Alpha virt. eigenvalues --    0.80339   0.80841   0.81069   0.81778   0.82783
 Alpha virt. eigenvalues --    0.82911   0.83547   0.84014   0.84969   0.86642
 Alpha virt. eigenvalues --    0.86898   0.88571   0.89077   0.90241   0.90895
 Alpha virt. eigenvalues --    0.93462   0.93786   0.94583   0.94777   0.95459
 Alpha virt. eigenvalues --    0.95585   0.96582   0.97279   0.97616   0.99653
 Alpha virt. eigenvalues --    1.00273   1.00844   1.02769   1.03088   1.04247
 Alpha virt. eigenvalues --    1.05245   1.06367   1.06469   1.07912   1.09042
 Alpha virt. eigenvalues --    1.09580   1.10205   1.10585   1.11112   1.13141
 Alpha virt. eigenvalues --    1.14585   1.14907   1.15950   1.16016   1.17981
 Alpha virt. eigenvalues --    1.18857   1.19478   1.20370   1.21374   1.24906
 Alpha virt. eigenvalues --    1.26581   1.27865   1.27949   1.28129   1.28370
 Alpha virt. eigenvalues --    1.28594   1.29127   1.29259   1.29397   1.30183
 Alpha virt. eigenvalues --    1.30318   1.30932   1.31216   1.31246   1.31362
 Alpha virt. eigenvalues --    1.32660   1.34158   1.35293   1.36158   1.37456
 Alpha virt. eigenvalues --    1.39007   1.39984   1.41238   1.42559   1.42653
 Alpha virt. eigenvalues --    1.43421   1.45682   1.46154   1.46649   1.47180
 Alpha virt. eigenvalues --    1.47702   1.48052   1.49754   1.49786   1.50177
 Alpha virt. eigenvalues --    1.50209   1.50375   1.52349   1.52580   1.53059
 Alpha virt. eigenvalues --    1.53670   1.54125   1.55041   1.56129   1.57400
 Alpha virt. eigenvalues --    1.58362   1.59185   1.59629   1.60695   1.62357
 Alpha virt. eigenvalues --    1.63399   1.64246   1.65036   1.65203   1.65590
 Alpha virt. eigenvalues --    1.66837   1.67365   1.68966   1.69241   1.69709
 Alpha virt. eigenvalues --    1.69878   1.70180   1.70696   1.70722   1.70846
 Alpha virt. eigenvalues --    1.71023   1.71118   1.71526   1.71881   1.72300
 Alpha virt. eigenvalues --    1.72388   1.72887   1.73209   1.73930   1.74319
 Alpha virt. eigenvalues --    1.74373   1.75078   1.75359   1.75461   1.76094
 Alpha virt. eigenvalues --    1.76252   1.76325   1.76689   1.77568   1.77813
 Alpha virt. eigenvalues --    1.78094   1.78367   1.78436   1.78782   1.78881
 Alpha virt. eigenvalues --    1.79441   1.79604   1.80007   1.80415   1.80677
 Alpha virt. eigenvalues --    1.80724   1.80832   1.81519   1.82118   1.82307
 Alpha virt. eigenvalues --    1.82768   1.83088   1.83812   1.83979   1.84156
 Alpha virt. eigenvalues --    1.84330   1.84804   1.85822   1.86482   1.86670
 Alpha virt. eigenvalues --    1.87576   1.88024   1.88099   1.88555   1.89364
 Alpha virt. eigenvalues --    1.89403   1.90011   1.90176   1.90426   1.91671
 Alpha virt. eigenvalues --    1.92099   1.93407   1.93768   1.94917   1.95079
 Alpha virt. eigenvalues --    1.97017   1.97508   1.98272   1.99295   1.99862
 Alpha virt. eigenvalues --    2.01641   2.02862   2.03790   2.04424   2.04462
 Alpha virt. eigenvalues --    2.04660   2.05085   2.05633   2.06720   2.07766
 Alpha virt. eigenvalues --    2.08347   2.09215   2.10130   2.10624   2.12564
 Alpha virt. eigenvalues --    2.13161   2.13929   2.14208   2.14561   2.15416
 Alpha virt. eigenvalues --    2.15631   2.16336   2.16832   2.17761   2.19203
 Alpha virt. eigenvalues --    2.20560   2.20851   2.21644   2.24580   2.25856
 Alpha virt. eigenvalues --    2.26382   2.27335   2.27546   2.28070   2.28901
 Alpha virt. eigenvalues --    2.29285   2.29509   2.31439   2.32365   2.32779
 Alpha virt. eigenvalues --    2.33655   2.34677   2.35213   2.35412   2.35927
 Alpha virt. eigenvalues --    2.36952   2.37051   2.37689   2.38604   2.38865
 Alpha virt. eigenvalues --    2.39397   2.40744   2.41006   2.41298   2.41659
 Alpha virt. eigenvalues --    2.42071   2.42525   2.42847   2.43978   2.44560
 Alpha virt. eigenvalues --    2.45997   2.46525   2.48956   2.49358   2.49708
 Alpha virt. eigenvalues --    2.49855   2.50535   2.50932   2.51863   2.52519
 Alpha virt. eigenvalues --    2.52775   2.54196   2.54673   2.56170   2.57418
 Alpha virt. eigenvalues --    2.57859   2.58482   2.61224   2.61471   2.61969
 Alpha virt. eigenvalues --    2.63906   2.64642   2.65690   2.66482   2.67216
 Alpha virt. eigenvalues --    2.67825   2.68367   2.72317   2.72565   2.73162
 Alpha virt. eigenvalues --    2.73478   2.75641   2.76925   2.78489   2.79735
 Alpha virt. eigenvalues --    2.81163   2.81407   2.84153   2.84499   2.85381
 Alpha virt. eigenvalues --    2.88634   2.89319   2.92835   2.93901   2.97871
 Alpha virt. eigenvalues --    3.03273   3.13930   3.16911   3.37874   3.50925
 Alpha virt. eigenvalues --    3.55969   3.61711
          Condensed to atoms (all electrons):
 Mulliken charges:
               1
     1  C    0.043314
     2  C    0.030843
     3  C    0.020640
     4  C   -0.009441
     5  C    0.188450
     6  C   -0.063823
     7  C    0.010781
     8  C    0.072651
     9  C   -0.014973
    10  C   -0.018463
    11  N   -0.311723
    12  C    0.069818
    13  C    0.046803
    14  C   -0.035483
    15  C    0.024763
    16  C   -0.014802
    17  C   -0.007066
    18  C   -0.008101
    19  C   -0.009545
    20  C   -0.009831
    21  C   -0.011208
    22  C   -0.017371
    23  C   -0.043356
    24  C   -0.011577
    25  C    0.079695
    26  O   -0.225228
    27  H   -0.038150
    28  H   -0.029448
    29  H   -0.051936
    30  H   -0.047277
    31  H   -0.026083
    32  H   -0.041385
    33  H    0.039922
    34  H    0.039729
    35  H    0.030128
    36  H    0.039195
    37  H    0.041076
    38  H    0.031716
    39  H    0.038234
    40  H    0.038804
    41  H    0.018181
    42  H    0.017351
    43  H    0.000625
    44  H    0.000236
    45  H    0.006873
    46  H    0.006621
    47  H    0.003270
    48  H    0.003067
    49  H    0.004985
    50  H    0.004861
    51  H    0.003820
    52  H    0.003702
    53  H    0.004430
    54  H    0.004357
    55  H    0.003749
    56  H    0.003676
    57  H    0.007872
    58  H    0.007850
    59  H    0.019154
    60  H    0.019151
    61  H    0.015874
 Sum of Mulliken charges =   0.00000
 Mulliken charges with hydrogens summed into heavy atoms:
               1
     1  C    0.043314
     2  C    0.030843
     3  C   -0.017510
     4  C   -0.038889
     5  C    0.188450
     6  C   -0.115759
     7  C   -0.030603
     8  C    0.046569
     9  C   -0.014973
    10  C   -0.065740
    11  N   -0.311723
    12  C    0.178573
    13  C    0.046803
    14  C    0.044168
    15  C    0.060295
    16  C   -0.013941
    17  C    0.006427
    18  C   -0.001764
    19  C    0.000300
    20  C   -0.002309
    21  C   -0.002421
    22  C   -0.009947
    23  C   -0.027634
    24  C    0.042603
    25  C    0.190095
    26  O   -0.225228
 Electronic spatial extent (au):  <R**2>=          53597.8538
 Charge=              0.0000 electrons
 Dipole moment (field-independent basis, Debye):
    X=              6.7066    Y=              0.5086    Z=             -0.4257  Tot=              6.7393
 Quadrupole moment (field-independent basis, Debye-Ang):
   XX=           -164.1310   YY=           -164.3519   ZZ=           -152.0754
   XY=             -0.2373   XZ=             -2.3542   YZ=              0.9958
 Traceless Quadrupole moment (field-independent basis, Debye-Ang):
   XX=             -3.9449   YY=             -4.1658   ZZ=              8.1107
   XY=             -0.2373   XZ=             -2.3542   YZ=              0.9958
 Octapole moment (field-independent basis, Debye-Ang**2):
  XXX=           1877.1260  YYY=            -19.9562  ZZZ=          -2122.1277  XYY=            542.0719
  XXY=             12.5452  XXZ=           -724.8718  XZZ=            579.0999  YZZ=             -8.3417
  YYZ=           -681.3227  XYZ=             -1.6819
 Hexadecapole moment (field-independent basis, Debye-Ang**3):
 XXXX=         -34651.7500 YYYY=           -301.6392 ZZZZ=         -41899.0828 XXXY=           -292.0247
 XXXZ=          17593.7020 YYYX=           -236.1150 YYYZ=             82.5826 ZZZX=          17992.8866
 ZZZY=             21.0330 XXYY=          -5687.5187 XXZZ=         -12671.1731 YYZZ=          -6730.0958
 XXYZ=             55.4283 YYXZ=           5717.5814 ZZXY=            -54.6492
 N-N= 2.000012245330D+03 E-N=-6.469768072174D+03  KE= 1.057219030369D+03
 1\1\GINC-BOOTES\SP\RCAM-B3LYP TD-FC\CC-pVDZ\C24H35N1O1\TBERGS\06-May-2
 017\0\\#CAM-B3LYP/cc-pVDZ nosymm TD(NStates=2, triplets) guess=read ge
 om=(allcheck,modredundant)\\L0tail deg\\0,1\C,0,-0.0790111368,0.040771
 5567,0.0058277239\C,0,-0.0963671803,0.1725150007,1.4411392964\C,0,1.17
 54127361,0.3401652869,2.092867834\C,0,2.3702089958,0.3721276319,1.4043
 702706\C,0,2.3863742006,0.2397097661,-0.0051982705\C,0,1.1202124212,0.
 075752277,-0.6808405947\C,0,-1.3344980285,-0.1283292783,-0.6851018574\
 C,0,-2.5180369375,-0.1665647759,0.0122976481\C,0,-2.557029532,-0.04242
 01211,1.4159512974\C,0,-1.3112481089,0.1322023674,2.1210216107\N,0,3.5
 371084773,0.2584030537,-0.7224995926\C,0,4.8079112861,0.4007049695,-0.
 038358289\C,0,-3.8604516245,-0.1025296826,2.0767407812\C,0,-3.90290884
 74,0.0261263869,3.5882483194\C,0,-5.3021229527,-0.077922825,4.17632382
 05\C,0,-5.3227832946,0.0496318382,5.6957407445\C,0,-6.720166325,-0.077
 6721671,6.2944074509\C,0,-6.7489516591,0.0477850768,7.8143544911\C,0,-
 8.1445618388,-0.0986384284,8.4128127287\C,0,-8.174697039,0.0260519935,
 9.9328555955\C,0,-9.5689682301,-0.1328598896,10.5312214184\C,0,-9.6004
 656993,-0.008875481,12.0510849533\C,0,-10.9942704618,-0.1743058024,12.
 6493609221\C,0,-11.0138653727,-0.0497473566,14.168571503\C,0,3.5350566
 149,0.1277028368,-2.172063807\O,0,-4.9122729969,-0.2552029038,1.435689
 7241\H,0,1.1858760914,0.4441254342,3.1798336866\H,0,3.2977457232,0.501
 0887646,1.9570291351\H,0,1.0974294081,-0.0278522714,-1.7639773407\H,0,
 -1.3037331481,0.2339979065,3.2057213022\H,0,-3.4678167038,-0.297051792
 4,-0.5073488576\H,0,-1.3229078366,-0.2267613696,-1.7724522486\H,0,-3.4
 353404748,0.9868502781,3.8725354106\H,0,-3.2439393892,-0.7460098014,4.
 0256995394\H,0,4.564998689,0.1988465754,-2.5326599391\H,0,3.1233261166
 ,-0.8435002735,-2.487824393\H,0,2.9471004493,0.9281277405,-2.645940460
 5\H,0,5.6191842171,0.3751763522,-0.7710801904\H,0,4.85521892,1.3552655
 225,0.511219822\H,0,4.9574024462,-0.4164944276,0.6861750395\H,0,-5.943
 445034,0.6977525219,3.7265853143\H,0,-5.7486682587,-1.0404299522,3.877
 0038516\H,0,-4.8866681353,1.0216059265,5.9892812738\H,0,-4.6665607909,
 -0.7218726786,6.1377390813\H,0,-7.377792537,0.6921100652,5.8518182447\
 H,0,-7.1531338479,-1.0509955457,6.0009908715\H,0,-6.3264504415,1.02566
 63799,8.1079195366\H,0,-6.0822093902,-0.7151373794,8.2553483693\H,0,-8
 .8126211887,0.6626833397,7.9711123845\H,0,-8.5651056851,-1.0774502462,
 8.1194703387\H,0,-7.7612090179,1.0077666673,10.2264907002\H,0,-7.50091
 74296,-0.7307358851,10.3737226356\H,0,-10.2434060246,0.623012811,10.08
 97573442\H,0,-9.9811722199,-1.1151118268,10.2374129204\H,0,-9.19232058
 6,0.9749389825,12.3459918265\H,0,-8.9235583113,-0.7625513625,12.493044
 5191\H,0,-11.669936807,0.5790378197,12.2075017241\H,0,-11.4007100092,-
 1.1573616851,12.3532950474\H,0,-10.6421501779,0.9364098941,14.49103694
 34\H,0,-10.3725180012,-0.8132860393,14.6380204815\H,0,-12.0301190805,-
 0.1724527755,14.5728543633\\Version=ES64L-G09RevD.01\HF=-1065.0557826\
 RMSD=7.395e-09\PG=C01 [X(C24H35N1O1)]\\@


 THE ONLY TROUBLE WITH A SURE THING IS THE UNCERTAINTY.
     -- FROM A TEABAG (BELONGING TO W.H.?)
 Job cpu time:       0 days  1 hours  8 minutes 15.3 seconds.
 File lengths (MBytes):  RWF=    350 Int=      0 D2E=      0 Chk=     72 Scr=      1
 Normal termination of Gaussian 09 at Sat May  6 15:17:29 2017.
