 Entering Gaussian System, Link 0=g09
 Input=L180tailexcited.com
 Output=L180tailexcited.log
 Initial command:
 /home/sknippen/PROGRAMS/GAUSSIAN/g09.d01/tar//g09/l1.exe "/scratch/tbergs/Gau-9656.inp" -scrdir="/scratch/tbergs/"
 Entering Link 1 = /home/sknippen/PROGRAMS/GAUSSIAN/g09.d01/tar//g09/l1.exe PID=      9658.
  
 Copyright (c) 1988,1990,1992,1993,1995,1998,2003,2009,2013,
            Gaussian, Inc.  All Rights Reserved.
  
 This is part of the Gaussian(R) 09 program.  It is based on
 the Gaussian(R) 03 system (copyright 2003, Gaussian, Inc.),
 the Gaussian(R) 98 system (copyright 1998, Gaussian, Inc.),
 the Gaussian(R) 94 system (copyright 1995, Gaussian, Inc.),
 the Gaussian 92(TM) system (copyright 1992, Gaussian, Inc.),
 the Gaussian 90(TM) system (copyright 1990, Gaussian, Inc.),
 the Gaussian 88(TM) system (copyright 1988, Gaussian, Inc.),
 the Gaussian 86(TM) system (copyright 1986, Carnegie Mellon
 University), and the Gaussian 82(TM) system (copyright 1983,
 Carnegie Mellon University). Gaussian is a federally registered
 trademark of Gaussian, Inc.
  
 This software contains proprietary and confidential information,
 including trade secrets, belonging to Gaussian, Inc.
  
 This software is provided under written license and may be
 used, copied, transmitted, or stored only in accord with that
 written license.
  
 The following legend is applicable only to US Government
 contracts under FAR:
  
                    RESTRICTED RIGHTS LEGEND
  
 Use, reproduction and disclosure by the US Government is
 subject to restrictions as set forth in subparagraphs (a)
 and (c) of the Commercial Computer Software - Restricted
 Rights clause in FAR 52.227-19.
  
 Gaussian, Inc.
 340 Quinnipiac St., Bldg. 40, Wallingford CT 06492
  
  
 ---------------------------------------------------------------
 Warning -- This program may not be used in any manner that
 competes with the business of Gaussian, Inc. or will provide
 assistance to any competitor of Gaussian, Inc.  The licensee
 of this program is prohibited from giving any competitor of
 Gaussian, Inc. access to this program.  By using this program,
 the user acknowledges that Gaussian, Inc. is engaged in the
 business of creating and licensing software in the field of
 computational chemistry and represents and warrants to the
 licensee that it is not a competitor of Gaussian, Inc. and that
 it will not use this program in any manner prohibited above.
 ---------------------------------------------------------------
  

 Cite this work as:
 Gaussian 09, Revision D.01,
 M. J. Frisch, G. W. Trucks, H. B. Schlegel, G. E. Scuseria, 
 M. A. Robb, J. R. Cheeseman, G. Scalmani, V. Barone, B. Mennucci, 
 G. A. Petersson, H. Nakatsuji, M. Caricato, X. Li, H. P. Hratchian, 
 A. F. Izmaylov, J. Bloino, G. Zheng, J. L. Sonnenberg, M. Hada, 
 M. Ehara, K. Toyota, R. Fukuda, J. Hasegawa, M. Ishida, T. Nakajima, 
 Y. Honda, O. Kitao, H. Nakai, T. Vreven, J. A. Montgomery, Jr., 
 J. E. Peralta, F. Ogliaro, M. Bearpark, J. J. Heyd, E. Brothers, 
 K. N. Kudin, V. N. Staroverov, T. Keith, R. Kobayashi, J. Normand, 
 K. Raghavachari, A. Rendell, J. C. Burant, S. S. Iyengar, J. Tomasi, 
 M. Cossi, N. Rega, J. M. Millam, M. Klene, J. E. Knox, J. B. Cross, 
 V. Bakken, C. Adamo, J. Jaramillo, R. Gomperts, R. E. Stratmann, 
 O. Yazyev, A. J. Austin, R. Cammi, C. Pomelli, J. W. Ochterski, 
 R. L. Martin, K. Morokuma, V. G. Zakrzewski, G. A. Voth, 
 P. Salvador, J. J. Dannenberg, S. Dapprich, A. D. Daniels, 
 O. Farkas, J. B. Foresman, J. V. Ortiz, J. Cioslowski, 
 and D. J. Fox, Gaussian, Inc., Wallingford CT, 2013.
 
 ******************************************
 Gaussian 09:  ES64L-G09RevD.01 24-Apr-2013
                 7-May-2017 
 ******************************************
 %mem=50Gb
 %nprocs=20
 Will use up to   20 processors via shared memory.
 %chk=L180tail.chk
 ----------------------------------------------------------------------
 #CAM-B3LYP/cc-pVDZ opt(noeigentest,modredundant) nosymm SCRF=(Solvent=
 water) TD(NStates=3) guess=read geom=(allcheck,modredundant)
 ----------------------------------------------------------------------
 1/11=1,14=-1,18=120,19=15,26=3,29=7,38=1/1,3;
 2/9=110,12=2,15=1,40=1/2;
 3/5=16,11=9,14=-4,16=1,25=1,30=1,70=2201,71=1,72=1,74=-40,116=-2/1,2,8,3;
 4/5=1/1;
 5/5=2,38=6,53=1/2;
 8/6=1,10=1,108=3/1;
 9/15=2,41=3,42=1,70=2/14;
 10/5=4,31=1/2;
 6/7=2,8=2,9=2,10=2/1;
 7/12=6,13=5,30=1/1,2,3,16;
 1/11=1,14=-1,18=20,19=15,26=3/3(2);
 2/9=110,15=1/2;
 99//99;
 2/9=110,15=1/2;
 3/5=16,11=9,14=-2,16=1,25=1,30=1,70=2205,71=1,72=1,74=-40/1,2,8,3;
 4/5=5,16=3,69=1/1;
 5/5=2,38=5,53=1/2;
 8/6=1,10=1,108=3/1;
 9/15=2,41=3,42=1,49=4,70=2/14;
 10/5=4,31=1/2;
 7/12=6,13=5,30=1/1,2,3,16;
 1/11=1,14=-1,18=20,19=15,26=3/3(-8);
 2/9=110,15=1/2;
 6/7=2,8=2,9=2,10=2/1;
 99//99;
 Structure from the checkpoint file:  "L180tail.chk"
 ------------
 L180tail deg
 ------------
 Charge =  0 Multiplicity = 1
 Redundant internal coordinates found in file.
 C,0,-0.0190491406,0.1069747154,-0.1287837921
 C,0,-0.0921807025,0.2591180991,1.299812584
 C,0,1.1474784398,0.364449929,2.0235384456
 C,0,2.3742869549,0.3218087138,1.3961596188
 C,0,2.4437637081,0.1691411752,-0.0133464768
 C,0,1.2185932997,0.0649880549,-0.7516677888
 C,0,-1.2436948852,0.0005629356,-0.8797998356
 C,0,-2.4681801078,0.0400020744,-0.2518965405
 C,0,-2.5552397519,0.1866306487,1.148789764
 C,0,-1.3498484373,0.2955943636,1.9082776825
 N,0,3.6400887867,0.1209290564,-0.657518519
 C,0,4.8715345402,0.2214412429,0.0927688636
 C,0,-3.8454024392,0.2270331616,1.8490895098
 C,0,-5.1328480709,0.1114927675,1.0459983718
 C,0,-6.3866714969,0.1350760697,1.9061274397
 C,0,-7.668299401,0.0381444554,1.0859720527
 C,0,-8.931385491,0.0447744955,1.9407549361
 C,0,-10.2177955439,-0.033397836,1.1254407599
 C,0,-11.479914766,-0.0372296126,1.9814923331
 C,0,-12.7671197878,-0.1026507345,1.1663108353
 C,0,-14.0287075713,-0.1117133913,2.0230418338
 C,0,-15.3164597889,-0.1694089477,1.2085293899
 C,0,-16.5780859791,-0.180828042,2.0655095614
 C,0,-17.8596221336,-0.2358596244,1.2423019493
 C,0,3.7102120465,-0.0318027209,-2.1010680611
 O,0,-3.8789701133,0.3540827,3.0766974106
 H,0,1.1072320931,0.4814847942,3.1078232199
 H,0,3.285998488,0.4052161804,1.9831910823
 H,0,1.232906252,-0.052436596,-1.8338959107
 H,0,-1.4206992605,0.4091453217,2.9896342964
 H,0,-3.3747127234,-0.0440437784,-0.8513620927
 H,0,-1.1874899625,-0.113577494,-1.9643726416
 H,0,-5.099129311,-0.8156015107,0.448302717
 H,0,-5.1633590882,0.931264325,0.306914924
 H,0,4.7602416893,-0.0413051885,-2.4077545388
 H,0,3.2452827345,-0.9747725604,-2.4279053367
 H,0,3.2068160078,0.8000724977,-2.6173688144
 H,0,5.7191741831,0.1566014116,-0.5960972896
 H,0,4.9248472918,1.1806597447,0.6328248233
 H,0,4.9493700024,-0.5941757275,0.829865606
 H,0,-6.344233461,-0.6938483859,2.6317875933
 H,0,-6.3971470483,1.0588476758,2.5072049129
 H,0,-7.6457246996,-0.882543155,0.4756809166
 H,0,-7.7084812438,0.8774904237,0.3686594269
 H,0,-8.8957584539,-0.8022356018,2.6491777479
 H,0,-8.947009503,0.9594284772,2.5602496855
 H,0,-10.1987538794,-0.9437218393,0.499586115
 H,0,-10.2561139173,0.8183837327,0.4227881944
 H,0,-11.4452846561,-0.8939751555,2.6782717063
 H,0,-11.4944307126,0.8687635338,2.6137340211
 H,0,-12.751184298,-1.006297931,0.5307372747
 H,0,-12.803239512,0.75666507,0.4727418335
 H,0,-13.9946516734,-0.9739352463,2.7131414731
 H,0,-14.0417001129,0.7893682246,2.6623700389
 H,0,-15.3037991386,-1.0695306343,0.5675205854
 H,0,-15.3521199562,0.6940941437,0.5198026819
 H,0,-16.5422670297,-1.0447915171,2.7520155221
 H,0,-16.5887713392,0.7177841759,2.7069298568
 H,0,-17.8898672721,-1.1411907353,0.6145887644
 H,0,-17.9382526892,0.6346243617,0.5710291377
 H,0,-18.7525499673,-0.2444117869,1.8855691393
 Recover connectivity data from disk.
 The following ModRedundant input section has been read:
 D      10       9      13      14 F                                           
 

 GradGradGradGradGradGradGradGradGradGradGradGradGradGradGradGradGradGrad
 Berny optimization.
 Initialization pass.
                           ----------------------------
                           !    Initial Parameters    !
                           ! (Angstroms and Degrees)  !
 --------------------------                            --------------------------
 ! Name  Definition              Value          Derivative Info.                !
 --------------------------------------------------------------------------------
 ! R1    R(1,2)                  1.4385         estimate D2E/DX2                !
 ! R2    R(1,6)                  1.3862         estimate D2E/DX2                !
 ! R3    R(1,7)                  1.4405         estimate D2E/DX2                !
 ! R4    R(2,3)                  1.4393         estimate D2E/DX2                !
 ! R5    R(2,10)                 1.3976         estimate D2E/DX2                !
 ! R6    R(3,4)                  1.3786         estimate D2E/DX2                !
 ! R7    R(3,27)                 1.0913         estimate D2E/DX2                !
 ! R8    R(4,5)                  1.4195         estimate D2E/DX2                !
 ! R9    R(4,28)                 1.0876         estimate D2E/DX2                !
 ! R10   R(5,6)                  1.4342         estimate D2E/DX2                !
 ! R11   R(5,11)                 1.3596         estimate D2E/DX2                !
 ! R12   R(6,29)                 1.0887         estimate D2E/DX2                !
 ! R13   R(7,8)                  1.3767         estimate D2E/DX2                !
 ! R14   R(7,32)                 1.092          estimate D2E/DX2                !
 ! R15   R(8,9)                  1.411          estimate D2E/DX2                !
 ! R16   R(8,31)                 1.0901         estimate D2E/DX2                !
 ! R17   R(9,10)                 1.4289         estimate D2E/DX2                !
 ! R18   R(9,13)                 1.4685         estimate D2E/DX2                !
 ! R19   R(10,30)                1.0896         estimate D2E/DX2                !
 ! R20   R(11,12)                1.4455         estimate D2E/DX2                !
 ! R21   R(11,25)                1.4533         estimate D2E/DX2                !
 ! R22   R(12,38)                1.0942         estimate D2E/DX2                !
 ! R23   R(12,39)                1.1021         estimate D2E/DX2                !
 ! R24   R(12,40)                1.1021         estimate D2E/DX2                !
 ! R25   R(13,14)                1.5218         estimate D2E/DX2                !
 ! R26   R(13,26)                1.2346         estimate D2E/DX2                !
 ! R27   R(14,15)                1.5207         estimate D2E/DX2                !
 ! R28   R(14,33)                1.1036         estimate D2E/DX2                !
 ! R29   R(14,34)                1.1042         estimate D2E/DX2                !
 ! R30   R(15,16)                1.5247         estimate D2E/DX2                !
 ! R31   R(15,41)                1.1025         estimate D2E/DX2                !
 ! R32   R(15,42)                1.1022         estimate D2E/DX2                !
 ! R33   R(16,17)                1.5252         estimate D2E/DX2                !
 ! R34   R(16,43)                1.1048         estimate D2E/DX2                !
 ! R35   R(16,44)                1.1048         estimate D2E/DX2                !
 ! R36   R(17,18)                1.525          estimate D2E/DX2                !
 ! R37   R(17,45)                1.1048         estimate D2E/DX2                !
 ! R38   R(17,46)                1.1048         estimate D2E/DX2                !
 ! R39   R(18,19)                1.5251         estimate D2E/DX2                !
 ! R40   R(18,47)                1.1049         estimate D2E/DX2                !
 ! R41   R(18,48)                1.1049         estimate D2E/DX2                !
 ! R42   R(19,20)                1.525          estimate D2E/DX2                !
 ! R43   R(19,49)                1.1049         estimate D2E/DX2                !
 ! R44   R(19,50)                1.1049         estimate D2E/DX2                !
 ! R45   R(20,21)                1.525          estimate D2E/DX2                !
 ! R46   R(20,51)                1.1049         estimate D2E/DX2                !
 ! R47   R(20,52)                1.1049         estimate D2E/DX2                !
 ! R48   R(21,22)                1.5248         estimate D2E/DX2                !
 ! R49   R(21,53)                1.1049         estimate D2E/DX2                !
 ! R50   R(21,54)                1.1049         estimate D2E/DX2                !
 ! R51   R(22,23)                1.5252         estimate D2E/DX2                !
 ! R52   R(22,55)                1.1051         estimate D2E/DX2                !
 ! R53   R(22,56)                1.1051         estimate D2E/DX2                !
 ! R54   R(23,24)                1.5242         estimate D2E/DX2                !
 ! R55   R(23,57)                1.1041         estimate D2E/DX2                !
 ! R56   R(23,58)                1.1041         estimate D2E/DX2                !
 ! R57   R(24,59)                1.1021         estimate D2E/DX2                !
 ! R58   R(24,60)                1.1021         estimate D2E/DX2                !
 ! R59   R(24,61)                1.1005         estimate D2E/DX2                !
 ! R60   R(25,35)                1.0939         estimate D2E/DX2                !
 ! R61   R(25,36)                1.101          estimate D2E/DX2                !
 ! R62   R(25,37)                1.1009         estimate D2E/DX2                !
 ! A1    A(2,1,6)              119.6592         estimate D2E/DX2                !
 ! A2    A(2,1,7)              118.8384         estimate D2E/DX2                !
 ! A3    A(6,1,7)              121.5023         estimate D2E/DX2                !
 ! A4    A(1,2,3)              117.6007         estimate D2E/DX2                !
 ! A5    A(1,2,10)             118.7418         estimate D2E/DX2                !
 ! A6    A(3,2,10)             123.6574         estimate D2E/DX2                !
 ! A7    A(2,3,4)              122.3689         estimate D2E/DX2                !
 ! A8    A(2,3,27)             118.4029         estimate D2E/DX2                !
 ! A9    A(4,3,27)             119.2283         estimate D2E/DX2                !
 ! A10   A(3,4,5)              119.9198         estimate D2E/DX2                !
 ! A11   A(3,4,28)             119.868          estimate D2E/DX2                !
 ! A12   A(5,4,28)             120.2123         estimate D2E/DX2                !
 ! A13   A(4,5,6)              118.5013         estimate D2E/DX2                !
 ! A14   A(4,5,11)             121.1555         estimate D2E/DX2                !
 ! A15   A(6,5,11)             120.3432         estimate D2E/DX2                !
 ! A16   A(1,6,5)              121.95           estimate D2E/DX2                !
 ! A17   A(1,6,29)             117.4966         estimate D2E/DX2                !
 ! A18   A(5,6,29)             120.5534         estimate D2E/DX2                !
 ! A19   A(1,7,8)              121.0817         estimate D2E/DX2                !
 ! A20   A(1,7,32)             118.8007         estimate D2E/DX2                !
 ! A21   A(8,7,32)             120.1176         estimate D2E/DX2                !
 ! A22   A(7,8,9)              120.7052         estimate D2E/DX2                !
 ! A23   A(7,8,31)             119.122          estimate D2E/DX2                !
 ! A24   A(9,8,31)             120.1728         estimate D2E/DX2                !
 ! A25   A(8,9,10)             118.9149         estimate D2E/DX2                !
 ! A26   A(8,9,13)             122.0353         estimate D2E/DX2                !
 ! A27   A(10,9,13)            119.0496         estimate D2E/DX2                !
 ! A28   A(2,10,9)             121.7177         estimate D2E/DX2                !
 ! A29   A(2,10,30)            119.5577         estimate D2E/DX2                !
 ! A30   A(9,10,30)            118.7245         estimate D2E/DX2                !
 ! A31   A(5,11,12)            120.0809         estimate D2E/DX2                !
 ! A32   A(5,11,25)            121.1182         estimate D2E/DX2                !
 ! A33   A(12,11,25)           118.8009         estimate D2E/DX2                !
 ! A34   A(11,12,38)           109.2117         estimate D2E/DX2                !
 ! A35   A(11,12,39)           110.8596         estimate D2E/DX2                !
 ! A36   A(11,12,40)           110.8459         estimate D2E/DX2                !
 ! A37   A(38,12,39)           108.8209         estimate D2E/DX2                !
 ! A38   A(38,12,40)           108.8143         estimate D2E/DX2                !
 ! A39   A(39,12,40)           108.2382         estimate D2E/DX2                !
 ! A40   A(9,13,14)            119.3082         estimate D2E/DX2                !
 ! A41   A(9,13,26)            120.0583         estimate D2E/DX2                !
 ! A42   A(14,13,26)           120.6335         estimate D2E/DX2                !
 ! A43   A(13,14,15)           113.4456         estimate D2E/DX2                !
 ! A44   A(13,14,33)           108.89           estimate D2E/DX2                !
 ! A45   A(13,14,34)           108.6779         estimate D2E/DX2                !
 ! A46   A(15,14,33)           110.155          estimate D2E/DX2                !
 ! A47   A(15,14,34)           110.1394         estimate D2E/DX2                !
 ! A48   A(33,14,34)           105.1902         estimate D2E/DX2                !
 ! A49   A(14,15,16)           112.8199         estimate D2E/DX2                !
 ! A50   A(14,15,41)           109.2016         estimate D2E/DX2                !
 ! A51   A(14,15,42)           109.2266         estimate D2E/DX2                !
 ! A52   A(16,15,41)           109.7926         estimate D2E/DX2                !
 ! A53   A(16,15,42)           109.7952         estimate D2E/DX2                !
 ! A54   A(41,15,42)           105.7583         estimate D2E/DX2                !
 ! A55   A(15,16,17)           113.2283         estimate D2E/DX2                !
 ! A56   A(15,16,43)           109.4477         estimate D2E/DX2                !
 ! A57   A(15,16,44)           109.3611         estimate D2E/DX2                !
 ! A58   A(17,16,43)           109.277          estimate D2E/DX2                !
 ! A59   A(17,16,44)           109.2964         estimate D2E/DX2                !
 ! A60   A(43,16,44)           105.9736         estimate D2E/DX2                !
 ! A61   A(16,17,18)           113.4991         estimate D2E/DX2                !
 ! A62   A(16,17,45)           109.2289         estimate D2E/DX2                !
 ! A63   A(16,17,46)           109.2429         estimate D2E/DX2                !
 ! A64   A(18,17,45)           109.3124         estimate D2E/DX2                !
 ! A65   A(18,17,46)           109.286          estimate D2E/DX2                !
 ! A66   A(45,17,46)           105.9988         estimate D2E/DX2                !
 ! A67   A(17,18,19)           113.4614         estimate D2E/DX2                !
 ! A68   A(17,18,47)           109.3011         estimate D2E/DX2                !
 ! A69   A(17,18,48)           109.2529         estimate D2E/DX2                !
 ! A70   A(19,18,47)           109.2782         estimate D2E/DX2                !
 ! A71   A(19,18,48)           109.282          estimate D2E/DX2                !
 ! A72   A(47,18,48)           105.9946         estimate D2E/DX2                !
 ! A73   A(18,19,20)           113.4901         estimate D2E/DX2                !
 ! A74   A(18,19,49)           109.2693         estimate D2E/DX2                !
 ! A75   A(18,19,50)           109.2699         estimate D2E/DX2                !
 ! A76   A(20,19,49)           109.2868         estimate D2E/DX2                !
 ! A77   A(20,19,50)           109.2665         estimate D2E/DX2                !
 ! A78   A(49,19,50)           105.9851         estimate D2E/DX2                !
 ! A79   A(19,20,21)           113.4667         estimate D2E/DX2                !
 ! A80   A(19,20,51)           109.2928         estimate D2E/DX2                !
 ! A81   A(19,20,52)           109.2551         estimate D2E/DX2                !
 ! A82   A(21,20,51)           109.2827         estimate D2E/DX2                !
 ! A83   A(21,20,52)           109.2826         estimate D2E/DX2                !
 ! A84   A(51,20,52)           105.9897         estimate D2E/DX2                !
 ! A85   A(20,21,22)           113.5021         estimate D2E/DX2                !
 ! A86   A(20,21,53)           109.2698         estimate D2E/DX2                !
 ! A87   A(20,21,54)           109.2651         estimate D2E/DX2                !
 ! A88   A(22,21,53)           109.2769         estimate D2E/DX2                !
 ! A89   A(22,21,54)           109.2692         estimate D2E/DX2                !
 ! A90   A(53,21,54)           105.9837         estimate D2E/DX2                !
 ! A91   A(21,22,23)           113.4986         estimate D2E/DX2                !
 ! A92   A(21,22,55)           109.3285         estimate D2E/DX2                !
 ! A93   A(21,22,56)           109.3048         estimate D2E/DX2                !
 ! A94   A(23,22,55)           109.2257         estimate D2E/DX2                !
 ! A95   A(23,22,56)           109.2284         estimate D2E/DX2                !
 ! A96   A(55,22,56)           105.9807         estimate D2E/DX2                !
 ! A97   A(22,23,24)           113.0982         estimate D2E/DX2                !
 ! A98   A(22,23,57)           109.1712         estimate D2E/DX2                !
 ! A99   A(22,23,58)           109.1676         estimate D2E/DX2                !
 ! A100  A(24,23,57)           109.5638         estimate D2E/DX2                !
 ! A101  A(24,23,58)           109.5739         estimate D2E/DX2                !
 ! A102  A(57,23,58)           106.0198         estimate D2E/DX2                !
 ! A103  A(23,24,59)           111.1229         estimate D2E/DX2                !
 ! A104  A(23,24,60)           111.1283         estimate D2E/DX2                !
 ! A105  A(23,24,61)           111.5177         estimate D2E/DX2                !
 ! A106  A(59,24,60)           107.456          estimate D2E/DX2                !
 ! A107  A(59,24,61)           107.7141         estimate D2E/DX2                !
 ! A108  A(60,24,61)           107.7145         estimate D2E/DX2                !
 ! A109  A(11,25,35)           109.0078         estimate D2E/DX2                !
 ! A110  A(11,25,36)           111.3769         estimate D2E/DX2                !
 ! A111  A(11,25,37)           111.3681         estimate D2E/DX2                !
 ! A112  A(35,25,36)           108.3408         estimate D2E/DX2                !
 ! A113  A(35,25,37)           108.2997         estimate D2E/DX2                !
 ! A114  A(36,25,37)           108.3527         estimate D2E/DX2                !
 ! D1    D(6,1,2,3)              0.1105         estimate D2E/DX2                !
 ! D2    D(6,1,2,10)          -179.8347         estimate D2E/DX2                !
 ! D3    D(7,1,2,3)           -179.9312         estimate D2E/DX2                !
 ! D4    D(7,1,2,10)             0.1236         estimate D2E/DX2                !
 ! D5    D(2,1,6,5)             -0.0008         estimate D2E/DX2                !
 ! D6    D(2,1,6,29)           179.921          estimate D2E/DX2                !
 ! D7    D(7,1,6,5)           -179.9581         estimate D2E/DX2                !
 ! D8    D(7,1,6,29)            -0.0362         estimate D2E/DX2                !
 ! D9    D(2,1,7,8)             -0.1199         estimate D2E/DX2                !
 ! D10   D(2,1,7,32)           179.9196         estimate D2E/DX2                !
 ! D11   D(6,1,7,8)            179.8377         estimate D2E/DX2                !
 ! D12   D(6,1,7,32)            -0.1228         estimate D2E/DX2                !
 ! D13   D(1,2,3,4)             -0.1109         estimate D2E/DX2                !
 ! D14   D(1,2,3,27)           179.9275         estimate D2E/DX2                !
 ! D15   D(10,2,3,4)           179.8314         estimate D2E/DX2                !
 ! D16   D(10,2,3,27)           -0.1302         estimate D2E/DX2                !
 ! D17   D(1,2,10,9)            -0.0307         estimate D2E/DX2                !
 ! D18   D(1,2,10,30)          179.9246         estimate D2E/DX2                !
 ! D19   D(3,2,10,9)          -179.9723         estimate D2E/DX2                !
 ! D20   D(3,2,10,30)           -0.017          estimate D2E/DX2                !
 ! D21   D(2,3,4,5)             -0.0024         estimate D2E/DX2                !
 ! D22   D(2,3,4,28)          -179.9972         estimate D2E/DX2                !
 ! D23   D(27,3,4,5)           179.959          estimate D2E/DX2                !
 ! D24   D(27,3,4,28)           -0.0359         estimate D2E/DX2                !
 ! D25   D(3,4,5,6)              0.1138         estimate D2E/DX2                !
 ! D26   D(3,4,5,11)          -179.8488         estimate D2E/DX2                !
 ! D27   D(28,4,5,6)          -179.8914         estimate D2E/DX2                !
 ! D28   D(28,4,5,11)            0.146          estimate D2E/DX2                !
 ! D29   D(4,5,6,1)             -0.1135         estimate D2E/DX2                !
 ! D30   D(4,5,6,29)           179.967          estimate D2E/DX2                !
 ! D31   D(11,5,6,1)           179.8495         estimate D2E/DX2                !
 ! D32   D(11,5,6,29)           -0.0701         estimate D2E/DX2                !
 ! D33   D(4,5,11,12)            0.1929         estimate D2E/DX2                !
 ! D34   D(4,5,11,25)         -179.8333         estimate D2E/DX2                !
 ! D35   D(6,5,11,12)         -179.769          estimate D2E/DX2                !
 ! D36   D(6,5,11,25)            0.2048         estimate D2E/DX2                !
 ! D37   D(1,7,8,9)              0.0186         estimate D2E/DX2                !
 ! D38   D(1,7,8,31)          -179.9599         estimate D2E/DX2                !
 ! D39   D(32,7,8,9)           179.9786         estimate D2E/DX2                !
 ! D40   D(32,7,8,31)            0.0001         estimate D2E/DX2                !
 ! D41   D(7,8,9,10)             0.0764         estimate D2E/DX2                !
 ! D42   D(7,8,9,13)          -179.7594         estimate D2E/DX2                !
 ! D43   D(31,8,9,10)         -179.9454         estimate D2E/DX2                !
 ! D44   D(31,8,9,13)            0.2189         estimate D2E/DX2                !
 ! D45   D(8,9,10,2)            -0.0703         estimate D2E/DX2                !
 ! D46   D(8,9,10,30)          179.974          estimate D2E/DX2                !
 ! D47   D(13,9,10,2)          179.7704         estimate D2E/DX2                !
 ! D48   D(13,9,10,30)          -0.1853         estimate D2E/DX2                !
 ! D49   D(8,9,13,14)           -0.1645         estimate D2E/DX2                !
 ! D50   D(8,9,13,26)          179.862          estimate D2E/DX2                !
 ! D51   D(10,9,13,14)         180.0            Frozen                          !
 ! D52   D(10,9,13,26)           0.0265         estimate D2E/DX2                !
 ! D53   D(5,11,12,38)         179.6699         estimate D2E/DX2                !
 ! D54   D(5,11,12,39)         -60.4369         estimate D2E/DX2                !
 ! D55   D(5,11,12,40)          59.7934         estimate D2E/DX2                !
 ! D56   D(25,11,12,38)         -0.3046         estimate D2E/DX2                !
 ! D57   D(25,11,12,39)        119.5886         estimate D2E/DX2                !
 ! D58   D(25,11,12,40)       -120.181          estimate D2E/DX2                !
 ! D59   D(5,11,25,35)         179.7122         estimate D2E/DX2                !
 ! D60   D(5,11,25,36)         -60.7997         estimate D2E/DX2                !
 ! D61   D(5,11,25,37)          60.2804         estimate D2E/DX2                !
 ! D62   D(12,11,25,35)         -0.3137         estimate D2E/DX2                !
 ! D63   D(12,11,25,36)        119.1745         estimate D2E/DX2                !
 ! D64   D(12,11,25,37)       -119.7455         estimate D2E/DX2                !
 ! D65   D(9,13,14,15)         178.5986         estimate D2E/DX2                !
 ! D66   D(9,13,14,33)          55.5503         estimate D2E/DX2                !
 ! D67   D(9,13,14,34)         -58.5297         estimate D2E/DX2                !
 ! D68   D(26,13,14,15)         -1.4281         estimate D2E/DX2                !
 ! D69   D(26,13,14,33)       -124.4764         estimate D2E/DX2                !
 ! D70   D(26,13,14,34)        121.4437         estimate D2E/DX2                !
 ! D71   D(13,14,15,16)        179.196          estimate D2E/DX2                !
 ! D72   D(13,14,15,41)        -58.4225         estimate D2E/DX2                !
 ! D73   D(13,14,15,42)         56.7932         estimate D2E/DX2                !
 ! D74   D(33,14,15,16)        -58.4544         estimate D2E/DX2                !
 ! D75   D(33,14,15,41)         63.9271         estimate D2E/DX2                !
 ! D76   D(33,14,15,42)        179.1428         estimate D2E/DX2                !
 ! D77   D(34,14,15,16)         57.1336         estimate D2E/DX2                !
 ! D78   D(34,14,15,41)        179.5151         estimate D2E/DX2                !
 ! D79   D(34,14,15,42)        -65.2693         estimate D2E/DX2                !
 ! D80   D(14,15,16,17)        179.3358         estimate D2E/DX2                !
 ! D81   D(14,15,16,43)         57.1589         estimate D2E/DX2                !
 ! D82   D(14,15,16,44)        -58.5254         estimate D2E/DX2                !
 ! D83   D(41,15,16,17)         57.2864         estimate D2E/DX2                !
 ! D84   D(41,15,16,43)        -64.8905         estimate D2E/DX2                !
 ! D85   D(41,15,16,44)        179.4252         estimate D2E/DX2                !
 ! D86   D(42,15,16,17)        -58.5807         estimate D2E/DX2                !
 ! D87   D(42,15,16,43)        179.2423         estimate D2E/DX2                !
 ! D88   D(42,15,16,44)         63.558          estimate D2E/DX2                !
 ! D89   D(15,16,17,18)        179.2385         estimate D2E/DX2                !
 ! D90   D(15,16,17,45)        -58.5131         estimate D2E/DX2                !
 ! D91   D(15,16,17,46)         57.0137         estimate D2E/DX2                !
 ! D92   D(43,16,17,18)        -58.4894         estimate D2E/DX2                !
 ! D93   D(43,16,17,45)         63.759          estimate D2E/DX2                !
 ! D94   D(43,16,17,46)        179.2859         estimate D2E/DX2                !
 ! D95   D(44,16,17,18)         57.0636         estimate D2E/DX2                !
 ! D96   D(44,16,17,45)        179.3121         estimate D2E/DX2                !
 ! D97   D(44,16,17,46)        -65.1611         estimate D2E/DX2                !
 ! D98   D(16,17,18,19)        179.5685         estimate D2E/DX2                !
 ! D99   D(16,17,18,47)         57.337          estimate D2E/DX2                !
 ! D100  D(16,17,18,48)        -58.2304         estimate D2E/DX2                !
 ! D101  D(45,17,18,19)         57.3664         estimate D2E/DX2                !
 ! D102  D(45,17,18,47)        -64.8651         estimate D2E/DX2                !
 ! D103  D(45,17,18,48)        179.5674         estimate D2E/DX2                !
 ! D104  D(46,17,18,19)        -58.2307         estimate D2E/DX2                !
 ! D105  D(46,17,18,47)        179.5377         estimate D2E/DX2                !
 ! D106  D(46,17,18,48)         63.9703         estimate D2E/DX2                !
 ! D107  D(17,18,19,20)        179.4776         estimate D2E/DX2                !
 ! D108  D(17,18,19,49)        -58.2835         estimate D2E/DX2                !
 ! D109  D(17,18,19,50)         57.2644         estimate D2E/DX2                !
 ! D110  D(47,18,19,20)        -58.2781         estimate D2E/DX2                !
 ! D111  D(47,18,19,49)         63.9608         estimate D2E/DX2                !
 ! D112  D(47,18,19,50)        179.5086         estimate D2E/DX2                !
 ! D113  D(48,18,19,20)         57.2927         estimate D2E/DX2                !
 ! D114  D(48,18,19,49)        179.5316         estimate D2E/DX2                !
 ! D115  D(48,18,19,50)        -64.9205         estimate D2E/DX2                !
 ! D116  D(18,19,20,21)        179.7844         estimate D2E/DX2                !
 ! D117  D(18,19,20,51)         57.5495         estimate D2E/DX2                !
 ! D118  D(18,19,20,52)        -58.0087         estimate D2E/DX2                !
 ! D119  D(49,19,20,21)         57.5551         estimate D2E/DX2                !
 ! D120  D(49,19,20,51)        -64.6798         estimate D2E/DX2                !
 ! D121  D(49,19,20,52)        179.7621         estimate D2E/DX2                !
 ! D122  D(50,19,20,21)        -58.0005         estimate D2E/DX2                !
 ! D123  D(50,19,20,51)        179.7646         estimate D2E/DX2                !
 ! D124  D(50,19,20,52)         64.2064         estimate D2E/DX2                !
 ! D125  D(19,20,21,22)        179.684          estimate D2E/DX2                !
 ! D126  D(19,20,21,53)        -58.0812         estimate D2E/DX2                !
 ! D127  D(19,20,21,54)         57.4626         estimate D2E/DX2                !
 ! D128  D(51,20,21,22)        -58.0755         estimate D2E/DX2                !
 ! D129  D(51,20,21,53)         64.1593         estimate D2E/DX2                !
 ! D130  D(51,20,21,54)        179.703          estimate D2E/DX2                !
 ! D131  D(52,20,21,22)         57.4923         estimate D2E/DX2                !
 ! D132  D(52,20,21,53)        179.7271         estimate D2E/DX2                !
 ! D133  D(52,20,21,54)        -64.7292         estimate D2E/DX2                !
 ! D134  D(20,21,22,23)        179.9033         estimate D2E/DX2                !
 ! D135  D(20,21,22,55)         57.6937         estimate D2E/DX2                !
 ! D136  D(20,21,22,56)        -57.9011         estimate D2E/DX2                !
 ! D137  D(53,21,22,23)         57.6724         estimate D2E/DX2                !
 ! D138  D(53,21,22,55)        -64.5371         estimate D2E/DX2                !
 ! D139  D(53,21,22,56)        179.868          estimate D2E/DX2                !
 ! D140  D(54,21,22,23)        -57.8775         estimate D2E/DX2                !
 ! D141  D(54,21,22,55)        179.9129         estimate D2E/DX2                !
 ! D142  D(54,21,22,56)         64.3181         estimate D2E/DX2                !
 ! D143  D(21,22,23,24)        179.8885         estimate D2E/DX2                !
 ! D144  D(21,22,23,57)        -57.8558         estimate D2E/DX2                !
 ! D145  D(21,22,23,58)         57.6226         estimate D2E/DX2                !
 ! D146  D(55,22,23,24)        -57.8449         estimate D2E/DX2                !
 ! D147  D(55,22,23,57)         64.4107         estimate D2E/DX2                !
 ! D148  D(55,22,23,58)        179.8892         estimate D2E/DX2                !
 ! D149  D(56,22,23,24)         57.6505         estimate D2E/DX2                !
 ! D150  D(56,22,23,57)        179.9062         estimate D2E/DX2                !
 ! D151  D(56,22,23,58)        -64.6153         estimate D2E/DX2                !
 ! D152  D(22,23,24,59)         59.7265         estimate D2E/DX2                !
 ! D153  D(22,23,24,60)        -59.8803         estimate D2E/DX2                !
 ! D154  D(22,23,24,61)        179.921          estimate D2E/DX2                !
 ! D155  D(57,23,24,59)        -62.3095         estimate D2E/DX2                !
 ! D156  D(57,23,24,60)        178.0837         estimate D2E/DX2                !
 ! D157  D(57,23,24,61)         57.885          estimate D2E/DX2                !
 ! D158  D(58,23,24,59)       -178.2348         estimate D2E/DX2                !
 ! D159  D(58,23,24,60)         62.1583         estimate D2E/DX2                !
 ! D160  D(58,23,24,61)        -58.0403         estimate D2E/DX2                !
 --------------------------------------------------------------------------------
 Trust Radius=3.00D-01 FncErr=1.00D-07 GrdErr=1.00D-06
 Number of steps in this run=    346 maximum allowed number of steps=    366.
 GradGradGradGradGradGradGradGradGradGradGradGradGradGradGradGradGradGrad

 Symmetry turned off by external request.
 Stoichiometry    C24H35NO
 Framework group  C1[X(C24H35NO)]
 Deg. of freedom   177
 Full point group                 C1      NOp   1
                          Input orientation:                          
 ---------------------------------------------------------------------
 Center     Atomic      Atomic             Coordinates (Angstroms)
 Number     Number       Type             X           Y           Z
 ---------------------------------------------------------------------
      1          6           0       -0.019049    0.106975   -0.128784
      2          6           0       -0.092181    0.259118    1.299813
      3          6           0        1.147478    0.364450    2.023538
      4          6           0        2.374287    0.321809    1.396160
      5          6           0        2.443764    0.169141   -0.013346
      6          6           0        1.218593    0.064988   -0.751668
      7          6           0       -1.243695    0.000563   -0.879800
      8          6           0       -2.468180    0.040002   -0.251897
      9          6           0       -2.555240    0.186631    1.148790
     10          6           0       -1.349848    0.295594    1.908278
     11          7           0        3.640089    0.120929   -0.657519
     12          6           0        4.871535    0.221441    0.092769
     13          6           0       -3.845402    0.227033    1.849090
     14          6           0       -5.132848    0.111493    1.045998
     15          6           0       -6.386671    0.135076    1.906127
     16          6           0       -7.668299    0.038144    1.085972
     17          6           0       -8.931385    0.044774    1.940755
     18          6           0      -10.217796   -0.033398    1.125441
     19          6           0      -11.479915   -0.037230    1.981492
     20          6           0      -12.767120   -0.102651    1.166311
     21          6           0      -14.028708   -0.111713    2.023042
     22          6           0      -15.316460   -0.169409    1.208529
     23          6           0      -16.578086   -0.180828    2.065510
     24          6           0      -17.859622   -0.235860    1.242302
     25          6           0        3.710212   -0.031803   -2.101068
     26          8           0       -3.878970    0.354083    3.076697
     27          1           0        1.107232    0.481485    3.107823
     28          1           0        3.285998    0.405216    1.983191
     29          1           0        1.232906   -0.052437   -1.833896
     30          1           0       -1.420699    0.409145    2.989634
     31          1           0       -3.374713   -0.044044   -0.851362
     32          1           0       -1.187490   -0.113577   -1.964373
     33          1           0       -5.099129   -0.815602    0.448303
     34          1           0       -5.163359    0.931264    0.306915
     35          1           0        4.760242   -0.041305   -2.407755
     36          1           0        3.245283   -0.974773   -2.427905
     37          1           0        3.206816    0.800072   -2.617369
     38          1           0        5.719174    0.156601   -0.596097
     39          1           0        4.924847    1.180660    0.632825
     40          1           0        4.949370   -0.594176    0.829866
     41          1           0       -6.344233   -0.693848    2.631788
     42          1           0       -6.397147    1.058848    2.507205
     43          1           0       -7.645725   -0.882543    0.475681
     44          1           0       -7.708481    0.877490    0.368659
     45          1           0       -8.895758   -0.802236    2.649178
     46          1           0       -8.947010    0.959428    2.560250
     47          1           0      -10.198754   -0.943722    0.499586
     48          1           0      -10.256114    0.818384    0.422788
     49          1           0      -11.445285   -0.893975    2.678272
     50          1           0      -11.494431    0.868764    2.613734
     51          1           0      -12.751184   -1.006298    0.530737
     52          1           0      -12.803240    0.756665    0.472742
     53          1           0      -13.994652   -0.973935    2.713141
     54          1           0      -14.041700    0.789368    2.662370
     55          1           0      -15.303799   -1.069531    0.567521
     56          1           0      -15.352120    0.694094    0.519803
     57          1           0      -16.542267   -1.044792    2.752016
     58          1           0      -16.588771    0.717784    2.706930
     59          1           0      -17.889867   -1.141191    0.614589
     60          1           0      -17.938253    0.634624    0.571029
     61          1           0      -18.752550   -0.244412    1.885569
 ---------------------------------------------------------------------
 Rotational constants (GHZ):      1.1592250      0.0305719      0.0298592
 Standard basis: CC-pVDZ (5D, 7F)
   539 basis functions,  1103 primitive gaussians,   565 cartesian basis functions
    97 alpha electrons       97 beta electrons
       nuclear repulsion energy      1992.5859720441 Hartrees.
 NAtoms=   61 NActive=   61 NUniq=   61 SFac= 1.00D+00 NAtFMM=   60 NAOKFM=T Big=T
 Integral buffers will be    131072 words long.
 Raffenetti 1 integral format.
 Two-electron integral symmetry is turned off.
 ------------------------------------------------------------------------------
 Polarizable Continuum Model (PCM)
 =================================
 Model                : PCM (using non-symmetric T matrix).
 Atomic radii         : UFF (Universal Force Field).
 Polarization charges : Total charges.
 Charge compensation  : None.
 Solution method      : On-the-fly selection.
 Cavity type          : Scaled VdW (van der Waals Surface) (Alpha=1.100).
 Cavity algorithm     : GePol (No added spheres)
                        Default sphere list used, NSphG=   61.
                        Lebedev-Laikov grids with approx.  5.0 points / Ang**2.
                        Smoothing algorithm: Karplus/York (Gamma=1.0000).
                        Polarization charges: spherical gaussians, with
                                              point-specific exponents (IZeta= 3).
                        Self-potential: point-specific (ISelfS= 7).
                        Self-field    : sphere-specific E.n sum rule (ISelfD= 2).
 1st derivatives      : Analytical E(r).r(x)/FMM algorithm (CHGder, D1EAlg=3).
                        Cavity 1st derivative terms included.
 Solvent              : Water, Eps=  78.355300 Eps(inf)=   1.777849
 ------------------------------------------------------------------------------
 One-electron integrals computed using PRISM.
 NBasis=   539 RedAO= T EigKep=  1.68D-04  NBF=   539
 NBsUse=   539 1.00D-06 EigRej= -1.00D+00 NBFU=   539
 Initial guess from the checkpoint file:  "L180tail.chk"
 B after Tr=     0.000000    0.000000    0.000000
         Rot=    1.000000    0.000000    0.000000    0.000000 Ang=   0.00 deg.
 Requested convergence on RMS density matrix=1.00D-08 within 128 cycles.
 Requested convergence on MAX density matrix=1.00D-06.
 Requested convergence on             energy=1.00D-06.
 No special actions if energy rises.
 Inv3:  Mode=1 IEnd=    51866892.
 Iteration    1 A*A^-1 deviation from unit magnitude is 7.55D-15 for   4151.
 Iteration    1 A*A^-1 deviation from orthogonality  is 3.87D-15 for   4129   3138.
 Iteration    1 A^-1*A deviation from unit magnitude is 7.55D-15 for   4151.
 Iteration    1 A^-1*A deviation from orthogonality  is 2.18D-08 for   3660   3655.
 Iteration    2 A*A^-1 deviation from unit magnitude is 3.77D-15 for   1155.
 Iteration    2 A*A^-1 deviation from orthogonality  is 4.14D-15 for   2871    131.
 Iteration    2 A^-1*A deviation from unit magnitude is 1.11D-15 for   1540.
 Iteration    2 A^-1*A deviation from orthogonality  is 4.54D-16 for   1525    172.
 Error on total polarization charges =  0.02074
 SCF Done:  E(RCAM-B3LYP) =  -1065.06858976     A.U. after    1 cycles
            NFock=  1  Conv=0.25D-08     -V/T= 2.0074
 DoSCS=F DFT=T ScalE2(SS,OS)=  1.000000  1.000000
 ExpMin= 1.22D-01 ExpMax= 1.17D+04 ExpMxC= 4.01D+02 IAcc=3 IRadAn=         5 AccDes= 0.00D+00
 HarFok:  IExCor=  205 AccDes= 0.00D+00 IRadAn=         5 IDoV=-2 UseB2=F ITyADJ=14
 ICtDFT= 12500011 ScaDFX=  1.000000  1.000000  1.000000  1.000000
 Range of M.O.s used for correlation:    27   539
 NBasis=   539 NAE=    97 NBE=    97 NFC=    26 NFV=     0
 NROrb=    513 NOA=    71 NOB=    71 NVA=   442 NVB=   442

 **** Warning!!: The largest alpha MO coefficient is  0.14036391D+02

 Would need an additional         57172800000 words for in-memory AO integral storage.
 NEqPCM:  Using equilibrium solvation (IEInf=0, Eps=  78.3553, EpsInf=   1.7778)
    12 initial guesses have been made.
 Convergence on wavefunction:    0.000001000000000
 Iteration     1 Dimension    12 NMult     0 NNew     12
 CISAX will form    12 AO SS matrices at one time.
 New state      3 was old state      4
 Iteration     2 Dimension    18 NMult    12 NNew      6
 Iteration     3 Dimension    24 NMult    18 NNew      6
 Iteration     4 Dimension    30 NMult    24 NNew      6
 Iteration     5 Dimension    36 NMult    30 NNew      6
 Iteration     6 Dimension    42 NMult    36 NNew      6
 Iteration     7 Dimension    48 NMult    42 NNew      6
 Iteration     8 Dimension    54 NMult    48 NNew      6
 Iteration     9 Dimension    60 NMult    54 NNew      6
 Iteration    10 Dimension    66 NMult    60 NNew      6
 Iteration    11 Dimension    70 NMult    66 NNew      4
 ***********************************************************************
 Excited states from <AA,BB:AA,BB> singles matrix:
 ***********************************************************************
 
 Ground to excited state transition densities written to RWF  633
 Ground to excited state transition electric dipole moments (Au):
       state          X           Y           Z        Dip. S.      Osc.
         1         2.9257      0.0693      0.0551      8.5673      0.7023
         2         1.1543     -0.0533     -0.7329      1.8724      0.1812
         3         0.0139      0.0203     -0.0104      0.0007      0.0001
 Ground to excited state transition velocity dipole moments (Au):
       state          X           Y           Z        Dip. S.      Osc.
         1        -0.3521     -0.0093     -0.0158      0.1243      0.6741
         2        -0.1654      0.0081      0.1084      0.0391      0.1798
         3        -0.0019     -0.0060      0.0020      0.0000      0.0002
 Ground to excited state transition magnetic dipole moments (Au):
       state          X           Y           Z
         1         0.0107     -0.6148      0.1471
         2         0.0167      0.4254     -0.0167
         3        -0.0717      0.0930      0.8990
 Ground to excited state transition velocity quadrupole moments (Au):
       state          XX          YY          ZZ          XY          XZ          YZ
         1         0.0535     -0.0247     -0.0147     -0.1227     -0.4650     -0.0157
         2         0.7713     -0.0020      0.1244     -0.0303     -0.1089      0.0348
         3         0.0021     -0.0023      0.0055      0.0803     -0.0108     -0.0121
 <0|del|b> * <b|rxdel|0> + <0|del|b> * <b|delr+rdel|0>
 Rotatory Strengths (R) in cgs (10**-40 erg-esu-cm/Gauss)
       state          XX          YY          ZZ    R(velocity)    E-M Angle
         1         2.9047     -7.1477      2.2059     -0.6790       90.09
         2        -1.9179    -17.1647     13.4853     -1.8657       90.78
         3         3.1354      4.2493     -0.9008      2.1613       76.89
 1/2[<0|r|b>*<b|rxdel|0> + (<0|rxdel|b>*<b|r|0>)*]
 Rotatory Strengths (R) in cgs (10**-40 erg-esu-cm/Gauss)
       state          XX          YY          ZZ     R(length)
         1       -22.0740     30.1090     -5.7258      0.7697
         2       -13.6469     16.0329     -8.6716     -2.0952
         3         0.7026     -1.3368      6.6382      2.0013
  1/2[<0|del|b>*<b|r|0> + (<0|r|b>*<b|del|0>)*] (Au)
       state          X           Y           Z        Dip. S.   Osc.(frdel)
         1        -1.0302     -0.0006     -0.0009      1.0317      0.6878
         2        -0.1909     -0.0004     -0.0794      0.2707      0.1805
         3         0.0000     -0.0001      0.0000      0.0002      0.0001

 Excitation energies and oscillator strengths:
 
 Excited state symmetry could not be determined.
 Excited State   1:      Singlet-?Sym    3.3459 eV  370.55 nm  f=0.7023  <S**2>=0.000
      97 -> 98         0.68867
      97 -> 99        -0.11283
 This state for optimization and/or second-order correction.
 Total Energy, E(TD-HF/TD-KS) =  -1064.94562955    
 Copying the excited state density for this state as the 1-particle RhoCI density.
 
 Excited state symmetry could not be determined.
 Excited State   2:      Singlet-?Sym    3.9499 eV  313.89 nm  f=0.1812  <S**2>=0.000
      96 -> 98         0.32085
      97 -> 99         0.60175
 
 Excited state symmetry could not be determined.
 Excited State   3:      Singlet-?Sym    4.0118 eV  309.05 nm  f=0.0001  <S**2>=0.000
      95 -> 98         0.59411
      95 -> 99         0.27252
      95 ->100        -0.14773
      95 ->101         0.19311
 SavETr:  write IOETrn=   770 NScale= 10 NData=  16 NLR=1 NState=    3 LETran=      64.
          IDoAtm=11111111111111111111111111111111111111111111111111
          IDoAtm=11111111111
 NEqPCM:  Using equilibrium solvation (IEInf=0, Eps=  78.3553, EpsInf=   1.7778)
          Differentiating once with respect to electric field.
                with respect to dipole field.
          Differentiating once with respect to nuclear coordinates.
          There are     1 degrees of freedom in the 1st order CPHF.  IDoFFX=0 NUNeed=     1.
 LinEq1:  Iter=  0 NonCon=     1 RMS=2.54D-03 Max=2.18D-01 NDo=     1
 AX will form     1 AO Fock derivatives at one time.
 LinEq1:  Iter=  1 NonCon=     1 RMS=8.84D-04 Max=5.66D-02 NDo=     1
 LinEq1:  Iter=  2 NonCon=     1 RMS=4.51D-04 Max=3.03D-02 NDo=     1
 LinEq1:  Iter=  3 NonCon=     1 RMS=2.22D-04 Max=2.78D-02 NDo=     1
 LinEq1:  Iter=  4 NonCon=     1 RMS=1.15D-04 Max=6.43D-03 NDo=     1
 LinEq1:  Iter=  5 NonCon=     1 RMS=5.18D-05 Max=2.94D-03 NDo=     1
 LinEq1:  Iter=  6 NonCon=     1 RMS=2.84D-05 Max=1.84D-03 NDo=     1
 LinEq1:  Iter=  7 NonCon=     1 RMS=1.74D-05 Max=7.85D-04 NDo=     1
 LinEq1:  Iter=  8 NonCon=     1 RMS=9.34D-06 Max=4.94D-04 NDo=     1
 LinEq1:  Iter=  9 NonCon=     1 RMS=4.89D-06 Max=3.27D-04 NDo=     1
 LinEq1:  Iter= 10 NonCon=     1 RMS=1.92D-06 Max=1.10D-04 NDo=     1
 LinEq1:  Iter= 11 NonCon=     1 RMS=8.62D-07 Max=6.55D-05 NDo=     1
 LinEq1:  Iter= 12 NonCon=     1 RMS=3.87D-07 Max=2.47D-05 NDo=     1
 LinEq1:  Iter= 13 NonCon=     1 RMS=2.18D-07 Max=1.75D-05 NDo=     1
 LinEq1:  Iter= 14 NonCon=     1 RMS=9.61D-08 Max=4.61D-06 NDo=     1
 LinEq1:  Iter= 15 NonCon=     1 RMS=4.43D-08 Max=1.59D-06 NDo=     1
 LinEq1:  Iter= 16 NonCon=     1 RMS=1.49D-08 Max=7.54D-07 NDo=     1
 LinEq1:  Iter= 17 NonCon=     1 RMS=8.76D-09 Max=6.59D-07 NDo=     1
 LinEq1:  Iter= 18 NonCon=     1 RMS=2.54D-09 Max=1.20D-07 NDo=     1
 LinEq1:  Iter= 19 NonCon=     1 RMS=1.28D-09 Max=1.05D-07 NDo=     1
 LinEq1:  Iter= 20 NonCon=     1 RMS=4.71D-10 Max=2.05D-08 NDo=     1
 LinEq1:  Iter= 21 NonCon=     1 RMS=1.55D-10 Max=7.84D-09 NDo=     1
 LinEq1:  Iter= 22 NonCon=     1 RMS=8.05D-11 Max=4.52D-09 NDo=     1
 LinEq1:  Iter= 23 NonCon=     0 RMS=2.50D-11 Max=9.24D-10 NDo=     1
 Linear equations converged to 1.000D-10 1.000D-09 after    23 iterations.
 End of Minotr F.D. properties file   721 does not exist.
 End of Minotr F.D. properties file   722 does not exist.
 End of Minotr F.D. properties file   788 does not exist.

 **********************************************************************

            Population analysis using the SCF density.

 **********************************************************************

 Alpha  occ. eigenvalues --  -19.19736 -14.42818 -10.34571 -10.31465 -10.29026
 Alpha  occ. eigenvalues --  -10.28994 -10.27725 -10.27646 -10.27639 -10.27041
 Alpha  occ. eigenvalues --  -10.26950 -10.26778 -10.26567 -10.26376 -10.26113
 Alpha  occ. eigenvalues --  -10.25301 -10.25059 -10.24895 -10.24864 -10.24706
 Alpha  occ. eigenvalues --  -10.24657 -10.24635 -10.24627 -10.24618 -10.24606
 Alpha  occ. eigenvalues --  -10.24528  -1.11075  -1.04444  -0.95834  -0.90700
 Alpha  occ. eigenvalues --   -0.89667  -0.88506  -0.86516  -0.85827  -0.84351
 Alpha  occ. eigenvalues --   -0.83063  -0.81496  -0.79817  -0.79650  -0.76559
 Alpha  occ. eigenvalues --   -0.74661  -0.71397  -0.69600  -0.68261  -0.67184
 Alpha  occ. eigenvalues --   -0.66205  -0.64971  -0.64286  -0.64111  -0.61613
 Alpha  occ. eigenvalues --   -0.59787  -0.58272  -0.56683  -0.55555  -0.54519
 Alpha  occ. eigenvalues --   -0.54351  -0.53957  -0.52699  -0.52493  -0.51556
 Alpha  occ. eigenvalues --   -0.50822  -0.50300  -0.49723  -0.49064  -0.48745
 Alpha  occ. eigenvalues --   -0.48386  -0.48019  -0.47763  -0.47215  -0.46642
 Alpha  occ. eigenvalues --   -0.46408  -0.46406  -0.45016  -0.44630  -0.44534
 Alpha  occ. eigenvalues --   -0.43752  -0.42904  -0.42475  -0.42252  -0.41305
 Alpha  occ. eigenvalues --   -0.40505  -0.39833  -0.39664  -0.39373  -0.38801
 Alpha  occ. eigenvalues --   -0.38738  -0.38431  -0.38001  -0.37863  -0.37523
 Alpha  occ. eigenvalues --   -0.37476  -0.35567  -0.35379  -0.32884  -0.31290
 Alpha  occ. eigenvalues --   -0.28709  -0.23546
 Alpha virt. eigenvalues --   -0.02282   0.01172   0.06967   0.08315   0.10360
 Alpha virt. eigenvalues --    0.10498   0.10832   0.11479   0.12148   0.12281
 Alpha virt. eigenvalues --    0.12694   0.12711   0.13367   0.13730   0.14095
 Alpha virt. eigenvalues --    0.14326   0.14852   0.15745   0.16245   0.16877
 Alpha virt. eigenvalues --    0.17060   0.17154   0.18322   0.18979   0.19202
 Alpha virt. eigenvalues --    0.19498   0.19536   0.20126   0.20608   0.20628
 Alpha virt. eigenvalues --    0.20750   0.20992   0.21039   0.22048   0.22235
 Alpha virt. eigenvalues --    0.22615   0.22729   0.22887   0.24198   0.24897
 Alpha virt. eigenvalues --    0.25021   0.25417   0.25735   0.26223   0.26806
 Alpha virt. eigenvalues --    0.27407   0.28542   0.28851   0.29356   0.29543
 Alpha virt. eigenvalues --    0.30078   0.31789   0.32348   0.33443   0.33655
 Alpha virt. eigenvalues --    0.34857   0.35786   0.37149   0.37970   0.39132
 Alpha virt. eigenvalues --    0.39719   0.40185   0.42616   0.43601   0.43970
 Alpha virt. eigenvalues --    0.44987   0.46724   0.47284   0.48056   0.48318
 Alpha virt. eigenvalues --    0.48362   0.48661   0.48812   0.49669   0.49867
 Alpha virt. eigenvalues --    0.50420   0.50485   0.50973   0.52318   0.52461
 Alpha virt. eigenvalues --    0.53195   0.53566   0.54091   0.54130   0.54717
 Alpha virt. eigenvalues --    0.55241   0.55275   0.56265   0.56466   0.57073
 Alpha virt. eigenvalues --    0.57464   0.58177   0.58491   0.58830   0.59180
 Alpha virt. eigenvalues --    0.59538   0.60260   0.60833   0.61719   0.62658
 Alpha virt. eigenvalues --    0.63675   0.63867   0.64491   0.66179   0.66266
 Alpha virt. eigenvalues --    0.67486   0.67813   0.68028   0.68284   0.68868
 Alpha virt. eigenvalues --    0.69564   0.69970   0.70120   0.70403   0.70446
 Alpha virt. eigenvalues --    0.70897   0.71261   0.71290   0.71408   0.71624
 Alpha virt. eigenvalues --    0.71710   0.71855   0.72099   0.72342   0.72379
 Alpha virt. eigenvalues --    0.72714   0.72989   0.73068   0.73314   0.73671
 Alpha virt. eigenvalues --    0.73886   0.74101   0.74209   0.74493   0.74725
 Alpha virt. eigenvalues --    0.74954   0.75091   0.75779   0.75856   0.76264
 Alpha virt. eigenvalues --    0.76660   0.77018   0.77455   0.77603   0.77744
 Alpha virt. eigenvalues --    0.78058   0.78399   0.78538   0.79281   0.79573
 Alpha virt. eigenvalues --    0.80284   0.80765   0.81347   0.81446   0.82090
 Alpha virt. eigenvalues --    0.82276   0.83199   0.83765   0.86018   0.86271
 Alpha virt. eigenvalues --    0.88017   0.88612   0.88915   0.90661   0.91207
 Alpha virt. eigenvalues --    0.92121   0.92740   0.94676   0.95363   0.95574
 Alpha virt. eigenvalues --    0.96231   0.96668   0.97381   0.97610   0.98576
 Alpha virt. eigenvalues --    0.99272   1.00468   1.02245   1.02913   1.03791
 Alpha virt. eigenvalues --    1.04619   1.05900   1.06274   1.06723   1.08567
 Alpha virt. eigenvalues --    1.08672   1.10212   1.10510   1.11034   1.13881
 Alpha virt. eigenvalues --    1.14432   1.14714   1.15278   1.15624   1.17547
 Alpha virt. eigenvalues --    1.17826   1.18763   1.19580   1.20909   1.24838
 Alpha virt. eigenvalues --    1.25548   1.27872   1.27922   1.28121   1.28218
 Alpha virt. eigenvalues --    1.28391   1.28838   1.29033   1.29180   1.29967
 Alpha virt. eigenvalues --    1.30118   1.30735   1.31060   1.31116   1.31907
 Alpha virt. eigenvalues --    1.32368   1.34076   1.35133   1.36045   1.38628
 Alpha virt. eigenvalues --    1.38744   1.39944   1.40537   1.43439   1.43469
 Alpha virt. eigenvalues --    1.44010   1.44468   1.45885   1.46724   1.47101
 Alpha virt. eigenvalues --    1.47298   1.47832   1.49098   1.49861   1.50106
 Alpha virt. eigenvalues --    1.50735   1.50838   1.52200   1.52641   1.53035
 Alpha virt. eigenvalues --    1.53162   1.54131   1.55246   1.56234   1.57488
 Alpha virt. eigenvalues --    1.57969   1.58670   1.59200   1.61485   1.61921
 Alpha virt. eigenvalues --    1.63052   1.64339   1.65192   1.65710   1.66512
 Alpha virt. eigenvalues --    1.66742   1.67756   1.68504   1.68818   1.69325
 Alpha virt. eigenvalues --    1.69639   1.70095   1.70468   1.70585   1.71017
 Alpha virt. eigenvalues --    1.71221   1.71358   1.71899   1.72186   1.72296
 Alpha virt. eigenvalues --    1.72354   1.72778   1.73025   1.73785   1.73871
 Alpha virt. eigenvalues --    1.74251   1.74856   1.75062   1.75088   1.75929
 Alpha virt. eigenvalues --    1.75983   1.76670   1.76730   1.77358   1.77733
 Alpha virt. eigenvalues --    1.77807   1.78049   1.78227   1.78484   1.78537
 Alpha virt. eigenvalues --    1.79420   1.79452   1.79590   1.80234   1.80374
 Alpha virt. eigenvalues --    1.80541   1.80710   1.81062   1.81920   1.82111
 Alpha virt. eigenvalues --    1.82498   1.82618   1.83136   1.83732   1.84022
 Alpha virt. eigenvalues --    1.84407   1.85311   1.86100   1.86615   1.86886
 Alpha virt. eigenvalues --    1.86979   1.87305   1.87845   1.88083   1.89233
 Alpha virt. eigenvalues --    1.89263   1.89439   1.90152   1.90900   1.91719
 Alpha virt. eigenvalues --    1.92273   1.92613   1.93798   1.94737   1.96333
 Alpha virt. eigenvalues --    1.96765   1.97285   1.98718   1.98806   1.99797
 Alpha virt. eigenvalues --    2.01610   2.03027   2.03906   2.04177   2.04911
 Alpha virt. eigenvalues --    2.05323   2.05454   2.06757   2.06913   2.07800
 Alpha virt. eigenvalues --    2.08399   2.09354   2.10087   2.10139   2.11265
 Alpha virt. eigenvalues --    2.13059   2.13843   2.14497   2.14844   2.15179
 Alpha virt. eigenvalues --    2.15664   2.16056   2.17929   2.18040   2.19310
 Alpha virt. eigenvalues --    2.20802   2.21413   2.21498   2.24169   2.25070
 Alpha virt. eigenvalues --    2.25801   2.27371   2.27989   2.28114   2.29095
 Alpha virt. eigenvalues --    2.29963   2.30129   2.31335   2.32421   2.32844
 Alpha virt. eigenvalues --    2.33691   2.34512   2.34863   2.35068   2.35169
 Alpha virt. eigenvalues --    2.36591   2.36685   2.37375   2.38503   2.39099
 Alpha virt. eigenvalues --    2.39967   2.40677   2.40846   2.40975   2.41437
 Alpha virt. eigenvalues --    2.41646   2.42348   2.42738   2.43879   2.45287
 Alpha virt. eigenvalues --    2.45803   2.46066   2.49394   2.49766   2.50353
 Alpha virt. eigenvalues --    2.50486   2.50774   2.51455   2.52100   2.52632
 Alpha virt. eigenvalues --    2.53516   2.54077   2.55460   2.55968   2.57472
 Alpha virt. eigenvalues --    2.58008   2.58333   2.61032   2.61957   2.62584
 Alpha virt. eigenvalues --    2.63963   2.64942   2.65432   2.66284   2.67630
 Alpha virt. eigenvalues --    2.67831   2.68877   2.71957   2.72279   2.72315
 Alpha virt. eigenvalues --    2.73545   2.76538   2.77374   2.78365   2.79077
 Alpha virt. eigenvalues --    2.80351   2.81249   2.83333   2.83971   2.84635
 Alpha virt. eigenvalues --    2.88561   2.89127   2.92363   2.93977   2.98605
 Alpha virt. eigenvalues --    2.99328   3.14958   3.15704   3.41589   3.48387
 Alpha virt. eigenvalues --    3.54750   3.61357
          Condensed to atoms (all electrons):
 Mulliken charges:
               1
     1  C    0.028666
     2  C    0.010201
     3  C    0.017374
     4  C   -0.019657
     5  C    0.183244
     6  C   -0.075492
     7  C   -0.005139
     8  C    0.003215
     9  C   -0.025270
    10  C    0.029259
    11  N   -0.307141
    12  C    0.067137
    13  C    0.049087
    14  C   -0.036228
    15  C    0.016979
    16  C   -0.015600
    17  C   -0.010379
    18  C   -0.010546
    19  C   -0.011808
    20  C   -0.012232
    21  C   -0.013415
    22  C   -0.019465
    23  C   -0.044761
    24  C   -0.017729
    25  C    0.076851
    26  O   -0.262812
    27  H   -0.019893
    28  H   -0.006265
    29  H   -0.035016
    30  H   -0.041710
    31  H   -0.018596
    32  H   -0.026942
    33  H    0.055325
    34  H    0.055249
    35  H    0.045937
    36  H    0.041571
    37  H    0.041744
    38  H    0.046674
    39  H    0.043228
    40  H    0.043387
    41  H    0.009778
    42  H    0.010009
    43  H    0.007607
    44  H    0.007702
    45  H    0.006667
    46  H    0.006549
    47  H    0.005869
    48  H    0.005942
    49  H    0.005646
    50  H    0.005558
    51  H    0.005504
    52  H    0.005555
    53  H    0.005415
    54  H    0.005349
    55  H    0.005342
    56  H    0.005379
    57  H    0.008989
    58  H    0.008953
    59  H    0.020948
    60  H    0.020985
    61  H    0.017223
 Sum of Mulliken charges =   0.00000
 Mulliken charges with hydrogens summed into heavy atoms:
               1
     1  C    0.028666
     2  C    0.010201
     3  C   -0.002519
     4  C   -0.025922
     5  C    0.183244
     6  C   -0.110508
     7  C   -0.032081
     8  C   -0.015380
     9  C   -0.025270
    10  C   -0.012451
    11  N   -0.307141
    12  C    0.200426
    13  C    0.049087
    14  C    0.074346
    15  C    0.036766
    16  C   -0.000291
    17  C    0.002837
    18  C    0.001264
    19  C   -0.000605
    20  C   -0.001173
    21  C   -0.002651
    22  C   -0.008744
    23  C   -0.026819
    24  C    0.041428
    25  C    0.206104
    26  O   -0.262812
 Electronic spatial extent (au):  <R**2>=          53161.2450
 Charge=              0.0000 electrons
 Dipole moment (field-independent basis, Debye):
    X=              6.1911    Y=             -0.3878    Z=             -4.8604  Tot=              7.8806
 Quadrupole moment (field-independent basis, Debye-Ang):
   XX=           -140.4164   YY=           -164.2492   ZZ=           -167.9391
   XY=              2.4405   XZ=             11.8486   YZ=             -0.5125
 Traceless Quadrupole moment (field-independent basis, Debye-Ang):
   XX=             17.1185   YY=             -6.7143   ZZ=            -10.4042
   XY=              2.4405   XZ=             11.8486   YZ=             -0.5125
 Octapole moment (field-independent basis, Debye-Ang**2):
  XXX=           2649.1819  YYY=            -36.5208  ZZZ=           -514.1851  XYY=            806.8274
  XXY=            -11.4873  XXZ=           -214.2930  XZZ=            910.4048  YZZ=            -15.5845
  YYZ=           -152.8730  XYZ=              9.4666
 Hexadecapole moment (field-independent basis, Debye-Ang**3):
 XXXX=         -72772.6711 YYYY=           -302.3588 ZZZZ=          -2734.0102 XXXY=           -264.5652
 XXXZ=           4356.1459 YYYX=           -244.3245 YYYZ=            -53.4270 ZZZX=           4702.3470
 ZZZY=            -62.8310 XXYY=         -11802.1853 XXZZ=         -12626.0768 YYZZ=           -484.7370
 XXYZ=            -50.8953 YYXZ=           1465.4302 ZZXY=            -52.3958
 N-N= 1.992585972044D+03 E-N=-6.455683489567D+03  KE= 1.057293284289D+03
 D1PCM: PCM CHGder 1st derivatives, ID1Alg=3 FixD1E=F DoIter=F DoCFld=F I1PDM=6.
 Calling FoFJK, ICntrl=  10005127 FMM=T ISym2X=0 I1Cent= 0 IOpClX= 0 NMat=1 NMatS=1 NMatT=0.
 -------------------------------------------------------------------
 Center     Atomic                   Forces (Hartrees/Bohr)
 Number     Number              X              Y              Z
 -------------------------------------------------------------------
      1        6           0.005068942   -0.000006525   -0.001020118
      2        6          -0.006569853    0.000318095    0.004382344
      3        6          -0.001402552   -0.000162683   -0.001135068
      4        6          -0.000237912   -0.000419036   -0.003781701
      5        6           0.010599677    0.000967567    0.006620279
      6        6          -0.008713743   -0.000523832   -0.003132077
      7        6          -0.000499059   -0.000273550   -0.002559933
      8        6           0.001260757    0.000471369    0.003976059
      9        6          -0.010394496   -0.000765229   -0.003780145
     10        6           0.011115969    0.000578900    0.002701703
     11        7          -0.005675190   -0.000370465   -0.002245637
     12        6           0.002005321    0.000018754   -0.000041058
     13        6           0.005959832   -0.000705512   -0.007641559
     14        6           0.000646075    0.000202586    0.000624175
     15        6          -0.000254040   -0.000043006   -0.000406901
     16        6           0.000103388    0.000048411    0.000836820
     17        6           0.000038116   -0.000038633   -0.000770489
     18        6           0.000036397    0.000029783    0.000721298
     19        6           0.000004763   -0.000026169   -0.000707818
     20        6           0.000005732    0.000020999    0.000692799
     21        6          -0.000036991   -0.000019639   -0.000664756
     22        6          -0.000082204    0.000013935    0.000589817
     23        6          -0.000259858   -0.000016910   -0.000420057
     24        6          -0.000215528    0.000002438    0.000318274
     25        6           0.000084321   -0.000192026   -0.001738468
     26        8          -0.002164679    0.000540995    0.005967552
     27        1          -0.000614970    0.000022697    0.000284054
     28        1          -0.000890303    0.000027179    0.000319717
     29        1           0.001697421    0.000058836    0.000136083
     30        1          -0.001428008   -0.000036903   -0.000349929
     31        1           0.000318445   -0.000002605   -0.000053780
     32        1           0.000833742    0.000039536    0.000163887
     33        1          -0.000381715    0.000012358    0.000157901
     34        1          -0.000398848   -0.000006807    0.000173538
     35        1          -0.000111240    0.000038880    0.000248304
     36        1           0.000221276   -0.000021824    0.000019767
     37        1           0.000214908    0.000021364    0.000003587
     38        1          -0.000190606    0.000047671    0.000550178
     39        1           0.000328759   -0.000028965    0.000481404
     40        1           0.000321002    0.000141193    0.000455003
     41        1          -0.000039951    0.000125330    0.000161309
     42        1          -0.000063499   -0.000086963    0.000175190
     43        1          -0.000033072   -0.000029921   -0.000121134
     44        1          -0.000030718    0.000010678   -0.000121926
     45        1           0.000003104    0.000008274    0.000078502
     46        1           0.000001183    0.000003511    0.000073990
     47        1          -0.000003495   -0.000000455   -0.000070552
     48        1          -0.000003449   -0.000005741   -0.000068294
     49        1           0.000000464    0.000008227    0.000065868
     50        1          -0.000001857   -0.000000148    0.000062125
     51        1           0.000000822    0.000003172   -0.000062372
     52        1          -0.000000478   -0.000005663   -0.000059724
     53        1           0.000001470    0.000009147    0.000060330
     54        1          -0.000000517   -0.000002702    0.000058068
     55        1           0.000003822    0.000000736   -0.000068540
     56        1           0.000001244   -0.000001806   -0.000067781
     57        1           0.000039842    0.000003147    0.000081209
     58        1           0.000037901    0.000005304    0.000082287
     59        1          -0.000036214    0.000008594   -0.000038344
     60        1          -0.000034061   -0.000009671   -0.000038393
     61        1          -0.000185589   -0.000006276   -0.000156870
 -------------------------------------------------------------------
 Cartesian Forces:  Max     0.011115969 RMS     0.002119874

 GradGradGradGradGradGradGradGradGradGradGradGradGradGradGradGradGradGrad
 Berny optimization.
 FormGI is forming the generalized inverse of G from B-inverse, IUseBI=4.
 Internal  Forces:  Max     0.006070921 RMS     0.000891255
 Search for a local minimum.
 Step number   1 out of a maximum of  346
 All quantities printed in internal units (Hartrees-Bohrs-Radians)
 Mixed Optimization -- En-DIIS/RFO-DIIS
 Second derivative matrix not updated -- first step.
 ITU=  0
     Eigenvalues ---    0.00433   0.00433   0.00435   0.00435   0.00435
     Eigenvalues ---    0.00435   0.00438   0.00440   0.00446   0.00478
     Eigenvalues ---    0.00492   0.00868   0.00987   0.01090   0.01343
     Eigenvalues ---    0.01535   0.01629   0.01733   0.01793   0.01815
     Eigenvalues ---    0.01871   0.01901   0.01931   0.01961   0.01966
     Eigenvalues ---    0.02009   0.02052   0.02101   0.02152   0.02195
     Eigenvalues ---    0.02226   0.03490   0.03491   0.03491   0.03491
     Eigenvalues ---    0.03494   0.03494   0.03514   0.03530   0.03565
     Eigenvalues ---    0.03960   0.04853   0.04853   0.04853   0.04854
     Eigenvalues ---    0.04854   0.04854   0.04859   0.04864   0.04880
     Eigenvalues ---    0.05354   0.05501   0.05559   0.07298   0.07474
     Eigenvalues ---    0.07584   0.07637   0.08446   0.08466   0.08487
     Eigenvalues ---    0.08523   0.08524   0.08528   0.08529   0.08530
     Eigenvalues ---    0.08531   0.09567   0.12273   0.12292   0.12307
     Eigenvalues ---    0.12334   0.12334   0.12337   0.12338   0.12338
     Eigenvalues ---    0.12339   0.12962   0.16000   0.16000   0.16000
     Eigenvalues ---    0.16000   0.16000   0.16000   0.16000   0.16000
     Eigenvalues ---    0.16000   0.16000   0.16000   0.16000   0.16000
     Eigenvalues ---    0.16000   0.16000   0.21879   0.21896   0.21898
     Eigenvalues ---    0.21898   0.21904   0.21904   0.21904   0.21904
     Eigenvalues ---    0.21905   0.21905   0.22260   0.22564   0.23487
     Eigenvalues ---    0.23523   0.24465   0.24773   0.25000   0.25000
     Eigenvalues ---    0.25000   0.25000   0.25000   0.25000   0.29871
     Eigenvalues ---    0.29876   0.29885   0.29888   0.29888   0.29889
     Eigenvalues ---    0.29907   0.29921   0.29970   0.30196   0.30302
     Eigenvalues ---    0.33123   0.33124   0.33143   0.33145   0.33147
     Eigenvalues ---    0.33148   0.33148   0.33149   0.33150   0.33150
     Eigenvalues ---    0.33153   0.33154   0.33156   0.33158   0.33225
     Eigenvalues ---    0.33233   0.33234   0.33290   0.33407   0.33444
     Eigenvalues ---    0.33452   0.33452   0.33454   0.33456   0.33573
     Eigenvalues ---    0.33582   0.33623   0.34334   0.34361   0.34581
     Eigenvalues ---    0.34660   0.34806   0.34858   0.34966   0.35096
     Eigenvalues ---    0.35917   0.36099   0.37654   0.37816   0.38415
     Eigenvalues ---    0.38840   0.40083   0.40562   0.41639   0.42694
     Eigenvalues ---    0.44789   0.46038   0.48767   0.48830   0.53031
     Eigenvalues ---    0.891881000.000001000.000001000.000001000.00000
     Eigenvalues --- 1000.000001000.000001000.000001000.000001000.00000
     Eigenvalues --- 1000.000001000.000001000.000001000.000001000.00000
     Eigenvalues --- 1000.000001000.000001000.000001000.000001000.00000
     Eigenvalues --- 1000.000001000.000001000.000001000.000001000.00000
     Eigenvalues --- 1000.000001000.000001000.000001000.000001000.00000
     Eigenvalues --- 1000.000001000.000001000.000001000.000001000.00000
     Eigenvalues --- 1000.000001000.000001000.000001000.000001000.00000
     Eigenvalues --- 1000.000001000.000001000.000001000.000001000.00000
     Eigenvalues --- 1000.000001000.000001000.000001000.000001000.00000
     Eigenvalues --- 1000.000001000.000001000.000001000.000001000.00000
     Eigenvalues --- 1000.000001000.000001000.000001000.000001000.00000
     Eigenvalues --- 1000.000001000.000001000.000001000.000001000.00000
     Eigenvalues --- 1000.000001000.000001000.000001000.000001000.00000
     Eigenvalues --- 1000.000001000.000001000.000001000.000001000.00000
     Eigenvalues --- 1000.000001000.000001000.000001000.000001000.00000
     Eigenvalues --- 1000.000001000.000001000.000001000.000001000.00000
     Eigenvalues --- 1000.000001000.000001000.000001000.000001000.00000
     Eigenvalues --- 1000.000001000.000001000.000001000.000001000.00000
     Eigenvalues --- 1000.000001000.000001000.000001000.000001000.00000
     Eigenvalues --- 1000.000001000.000001000.000001000.000001000.00000
     Eigenvalues --- 1000.000001000.000001000.000001000.000001000.00000
     Eigenvalues --- 1000.000001000.000001000.000001000.000001000.00000
     Eigenvalues --- 1000.000001000.000001000.000001000.000001000.00000
     Eigenvalues --- 1000.000001000.000001000.000001000.000001000.00000
     Eigenvalues --- 1000.000001000.000001000.000001000.000001000.00000
     Eigenvalues --- 1000.000001000.000001000.000001000.000001000.00000
     Eigenvalues --- 1000.000001000.000001000.000001000.000001000.00000
     Eigenvalues --- 1000.000001000.000001000.000001000.000001000.00000
     Eigenvalues --- 1000.000001000.000001000.000001000.000001000.00000
     Eigenvalues --- 1000.000001000.000001000.000001000.000001000.00000
     Eigenvalues --- 1000.000001000.000001000.000001000.000001000.00000
     Eigenvalues --- 1000.00000
 RFO step:  Lambda=-8.16149327D-04 EMin= 4.32551987D-03
 Linear search not attempted -- first point.
 Iteration  1 RMS(Cart)=  0.02284624 RMS(Int)=  0.00005209
 Iteration  2 RMS(Cart)=  0.00014564 RMS(Int)=  0.00000209
 Iteration  3 RMS(Cart)=  0.00000000 RMS(Int)=  0.00000209
 Iteration  1 RMS(Cart)=  0.00000197 RMS(Int)=  0.00000022
 Iteration  2 RMS(Cart)=  0.00000112 RMS(Int)=  0.00000025
 Iteration  3 RMS(Cart)=  0.00000064 RMS(Int)=  0.00000028
 Variable       Old X    -DE/DX   Delta X   Delta X   Delta X     New X
                                 (Linear)    (Quad)   (Total)
    R1        2.71844   0.00193   0.00000   0.00467   0.00466   2.72310
    R2        2.61951  -0.00153   0.00000  -0.00307  -0.00308   2.61643
    R3        2.72219   0.00035   0.00000   0.00083   0.00084   2.72303
    R4        2.71991  -0.00140   0.00000  -0.00374  -0.00374   2.71617
    R5        2.64108  -0.00394   0.00000  -0.00861  -0.00861   2.63247
    R6        2.60514   0.00218   0.00000   0.00430   0.00430   2.60944
    R7        2.06231   0.00031   0.00000   0.00088   0.00088   2.06319
    R8        2.68237  -0.00193   0.00000  -0.00447  -0.00446   2.67791
    R9        2.05519  -0.00057   0.00000  -0.00163  -0.00163   2.05356
   R10        2.71030   0.00543   0.00000   0.01362   0.01362   2.72392
   R11        2.56925  -0.00138   0.00000  -0.00260  -0.00260   2.56665
   R12        2.05730  -0.00012   0.00000  -0.00034  -0.00034   2.05696
   R13        2.60150   0.00168   0.00000   0.00343   0.00343   2.60494
   R14        2.06360  -0.00012   0.00000  -0.00036  -0.00036   2.06324
   R15        2.66646  -0.00148   0.00000  -0.00326  -0.00326   2.66320
   R16        2.05991  -0.00024   0.00000  -0.00067  -0.00067   2.05924
   R17        2.70017   0.00607   0.00000   0.01476   0.01476   2.71493
   R18        2.77511  -0.00257   0.00000  -0.00715  -0.00715   2.76797
   R19        2.05906  -0.00026   0.00000  -0.00074  -0.00074   2.05832
   R20        2.73161   0.00286   0.00000   0.00735   0.00735   2.73897
   R21        2.74634   0.00149   0.00000   0.00394   0.00394   2.75028
   R22        2.06770  -0.00050   0.00000  -0.00144  -0.00144   2.06626
   R23        2.08265   0.00023   0.00000   0.00068   0.00068   2.08333
   R24        2.08265   0.00022   0.00000   0.00066   0.00066   2.08331
   R25        2.87575   0.00033   0.00000   0.00108   0.00108   2.87684
   R26        2.33310   0.00605   0.00000   0.00678   0.00678   2.33987
   R27        2.87366   0.00095   0.00000   0.00312   0.00312   2.87678
   R28        2.08546  -0.00011   0.00000  -0.00032  -0.00032   2.08513
   R29        2.08659  -0.00011   0.00000  -0.00033  -0.00033   2.08626
   R30        2.88121   0.00039   0.00000   0.00129   0.00129   2.88250
   R31        2.08342   0.00001   0.00000   0.00003   0.00003   2.08345
   R32        2.08278   0.00002   0.00000   0.00007   0.00007   2.08285
   R33        2.88212   0.00040   0.00000   0.00132   0.00132   2.88344
   R34        2.08781   0.00009   0.00000   0.00027   0.00027   2.08808
   R35        2.08783   0.00009   0.00000   0.00027   0.00027   2.08810
   R36        2.88188   0.00045   0.00000   0.00149   0.00149   2.88337
   R37        2.08775   0.00004   0.00000   0.00013   0.00013   2.08788
   R38        2.08779   0.00004   0.00000   0.00013   0.00013   2.08793
   R39        2.88193   0.00047   0.00000   0.00158   0.00158   2.88351
   R40        2.08791   0.00004   0.00000   0.00012   0.00012   2.08803
   R41        2.08789   0.00004   0.00000   0.00012   0.00012   2.08800
   R42        2.88188   0.00048   0.00000   0.00159   0.00159   2.88347
   R43        2.08788   0.00004   0.00000   0.00011   0.00011   2.08799
   R44        2.08792   0.00004   0.00000   0.00011   0.00011   2.08803
   R45        2.88186   0.00049   0.00000   0.00162   0.00162   2.88349
   R46        2.08794   0.00003   0.00000   0.00010   0.00010   2.08804
   R47        2.08793   0.00003   0.00000   0.00010   0.00010   2.08802
   R48        2.88149   0.00047   0.00000   0.00155   0.00155   2.88304
   R49        2.08798   0.00003   0.00000   0.00009   0.00009   2.08807
   R50        2.08800   0.00003   0.00000   0.00009   0.00009   2.08810
   R51        2.88222   0.00044   0.00000   0.00148   0.00148   2.88370
   R52        2.08836   0.00004   0.00000   0.00012   0.00012   2.08848
   R53        2.08834   0.00004   0.00000   0.00012   0.00012   2.08846
   R54        2.88023   0.00035   0.00000   0.00117   0.00117   2.88139
   R55        2.08642   0.00005   0.00000   0.00015   0.00015   2.08657
   R56        2.08645   0.00005   0.00000   0.00015   0.00015   2.08660
   R57        2.08261   0.00002   0.00000   0.00005   0.00005   2.08266
   R58        2.08259   0.00002   0.00000   0.00005   0.00005   2.08264
   R59        2.07972   0.00006   0.00000   0.00018   0.00018   2.07989
   R60        2.06725  -0.00018   0.00000  -0.00051  -0.00051   2.06674
   R61        2.08057  -0.00008   0.00000  -0.00024  -0.00024   2.08032
   R62        2.08041  -0.00008   0.00000  -0.00025  -0.00025   2.08016
    A1        2.08845   0.00173   0.00000   0.00691   0.00690   2.09535
    A2        2.07412  -0.00103   0.00000  -0.00442  -0.00441   2.06971
    A3        2.12062  -0.00070   0.00000  -0.00249  -0.00249   2.11812
[...]
 ICtDFT= 12500011 ScaDFX=  1.000000  1.000000  1.000000  1.000000
 Range of M.O.s used for correlation:    27   539
 NBasis=   539 NAE=    97 NBE=    97 NFC=    26 NFV=     0
 NROrb=    513 NOA=    71 NOB=    71 NVA=   442 NVB=   442

 **** Warning!!: The largest alpha MO coefficient is  0.14194157D+02

 Would need an additional         57065200000 words for in-memory AO integral storage.
     8 initial guesses have been made.
 Convergence on wavefunction:    0.001000000000000
 Iteration     1 Dimension     8 NMult     0 NNew      8
 CISAX will form     8 AO SS matrices at one time.
 Iteration     2 Dimension    12 NMult     8 NNew      4
 Iteration     3 Dimension    16 NMult    12 NNew      4
 Iteration     4 Dimension    20 NMult    16 NNew      4
 Iteration     5 Dimension    24 NMult    20 NNew      4
 Iteration     6 Dimension    28 NMult    24 NNew      4
 Iteration     7 Dimension    30 NMult    28 NNew      2
 Iteration     8 Dimension    32 NMult    30 NNew      2
 ***********************************************************************
 Excited states from <AA,BB:AA,BB> singles matrix:
 ***********************************************************************
 
 Ground to excited state transition densities written to RWF  633
 Ground to excited state transition electric dipole moments (Au):
       state          X           Y           Z        Dip. S.      Osc.
         1         0.0000      0.0000      0.0000      0.0000      0.0000
         2         0.0000      0.0000      0.0000      0.0000      0.0000
 Ground to excited state transition velocity dipole moments (Au):
       state          X           Y           Z        Dip. S.      Osc.
         1         0.0000      0.0000      0.0000      0.0000      0.0000
         2         0.0000      0.0000      0.0000      0.0000      0.0000
 Ground to excited state transition magnetic dipole moments (Au):
       state          X           Y           Z
         1         0.0000      0.0000      0.0000
         2         0.0000      0.0000      0.0000
 Ground to excited state transition velocity quadrupole moments (Au):
       state          XX          YY          ZZ          XY          XZ          YZ
         1         0.0000      0.0000      0.0000      0.0000      0.0000      0.0000
         2         0.0000      0.0000      0.0000      0.0000      0.0000      0.0000
 <0|del|b> * <b|rxdel|0> + <0|del|b> * <b|delr+rdel|0>
 Rotatory Strengths (R) in cgs (10**-40 erg-esu-cm/Gauss)
       state          XX          YY          ZZ    R(velocity)    E-M Angle
         1         0.0000      0.0000      0.0000      0.0000       90.00
         2         0.0000      0.0000      0.0000      0.0000       90.00
 1/2[<0|r|b>*<b|rxdel|0> + (<0|rxdel|b>*<b|r|0>)*]
 Rotatory Strengths (R) in cgs (10**-40 erg-esu-cm/Gauss)
       state          XX          YY          ZZ     R(length)
         1         0.0000      0.0000      0.0000      0.0000
         2         0.0000      0.0000      0.0000      0.0000
  1/2[<0|del|b>*<b|r|0> + (<0|r|b>*<b|del|0>)*] (Au)
       state          X           Y           Z        Dip. S.   Osc.(frdel)
         1         0.0000      0.0000      0.0000      0.0000      0.0000
         2         0.0000      0.0000      0.0000      0.0000      0.0000

 Excitation energies and oscillator strengths:
 
 Excited state symmetry could not be determined.
 Excited State   1:      Triplet-?Sym    1.9206 eV  645.56 nm  f=0.0000  <S**2>=2.000
      94 -> 98         0.12038
      96 -> 98         0.16360
      96 -> 99        -0.14897
      97 -> 98         0.64707
      97 <- 98         0.14758
 This state for optimization and/or second-order correction.
 Total Energy, E(TD-HF/TD-KS) =  -1064.98490615    
 Copying the excited state density for this state as the 1-particle RhoCI density.
 
 Excited state symmetry could not be determined.
 Excited State   2:      Triplet-?Sym    3.2582 eV  380.53 nm  f=0.0000  <S**2>=2.000
      94 -> 98         0.18350
      96 -> 98         0.13854
      97 -> 99         0.62968
      97 ->100        -0.10724
 SavETr:  write IOETrn=   770 NScale= 10 NData=  16 NLR=1 NState=    2 LETran=      46.

 **********************************************************************

            Population analysis using the SCF density.

 **********************************************************************

 Alpha  occ. eigenvalues --  -19.18110 -14.43446 -10.33106 -10.31469 -10.30474
 Alpha  occ. eigenvalues --  -10.30469 -10.27364 -10.27171 -10.26779 -10.26657
 Alpha  occ. eigenvalues --  -10.26411 -10.26378 -10.25853 -10.25780 -10.25564
 Alpha  occ. eigenvalues --  -10.25250 -10.24862 -10.24595 -10.24565 -10.24545
 Alpha  occ. eigenvalues --  -10.24525 -10.24495 -10.24482 -10.24479 -10.24398
 Alpha  occ. eigenvalues --  -10.24251  -1.09105  -1.05054  -0.95219  -0.90196
 Alpha  occ. eigenvalues --   -0.89407  -0.88175  -0.86175  -0.85374  -0.84126
 Alpha  occ. eigenvalues --   -0.82884  -0.82038  -0.79747  -0.79550  -0.76481
 Alpha  occ. eigenvalues --   -0.74628  -0.71191  -0.69360  -0.68080  -0.66790
 Alpha  occ. eigenvalues --   -0.65952  -0.64722  -0.64012  -0.63974  -0.61331
 Alpha  occ. eigenvalues --   -0.60031  -0.58131  -0.56188  -0.55274  -0.54931
 Alpha  occ. eigenvalues --   -0.54384  -0.54175  -0.52362  -0.52088  -0.51331
 Alpha  occ. eigenvalues --   -0.50524  -0.49944  -0.49578  -0.48837  -0.48602
 Alpha  occ. eigenvalues --   -0.48391  -0.48020  -0.47731  -0.47251  -0.46917
 Alpha  occ. eigenvalues --   -0.46255  -0.45923  -0.45596  -0.44612  -0.44015
 Alpha  occ. eigenvalues --   -0.43494  -0.42782  -0.41946  -0.41888  -0.40972
 Alpha  occ. eigenvalues --   -0.40246  -0.39321  -0.39111  -0.39073  -0.38408
 Alpha  occ. eigenvalues --   -0.38329  -0.38047  -0.37753  -0.37577  -0.37364
 Alpha  occ. eigenvalues --   -0.37252  -0.35211  -0.35185  -0.32303  -0.29736
 Alpha  occ. eigenvalues --   -0.28293  -0.23220
 Alpha virt. eigenvalues --   -0.01675   0.01866   0.07601   0.08902   0.08986
 Alpha virt. eigenvalues --    0.10597   0.10862   0.11414   0.11810   0.11958
 Alpha virt. eigenvalues --    0.12271   0.12610   0.12846   0.13663   0.13911
 Alpha virt. eigenvalues --    0.14058   0.14619   0.15386   0.16346   0.16875
 Alpha virt. eigenvalues --    0.17180   0.17455   0.17587   0.18279   0.18355
 Alpha virt. eigenvalues --    0.18763   0.19301   0.19637   0.19662   0.20594
 Alpha virt. eigenvalues --    0.20642   0.20877   0.21290   0.21747   0.22369
 Alpha virt. eigenvalues --    0.22545   0.22809   0.23094   0.24479   0.25011
 Alpha virt. eigenvalues --    0.25268   0.25525   0.26314   0.26575   0.26960
 Alpha virt. eigenvalues --    0.27550   0.28124   0.28798   0.29310   0.29845
 Alpha virt. eigenvalues --    0.30110   0.32007   0.32543   0.33579   0.33938
 Alpha virt. eigenvalues --    0.35101   0.35823   0.37106   0.38210   0.39599
 Alpha virt. eigenvalues --    0.40123   0.40678   0.42501   0.42819   0.43958
 Alpha virt. eigenvalues --    0.45409   0.46834   0.47509   0.48001   0.48565
 Alpha virt. eigenvalues --    0.48637   0.48941   0.49165   0.49545   0.50032
 Alpha virt. eigenvalues --    0.50573   0.51195   0.51286   0.52035   0.52925
 Alpha virt. eigenvalues --    0.53187   0.53750   0.53963   0.54408   0.54856
 Alpha virt. eigenvalues --    0.55388   0.55729   0.56147   0.56589   0.57405
 Alpha virt. eigenvalues --    0.57762   0.58387   0.58950   0.59254   0.59717
 Alpha virt. eigenvalues --    0.59844   0.60599   0.61381   0.62107   0.63060
 Alpha virt. eigenvalues --    0.63987   0.64258   0.64751   0.65997   0.66480
 Alpha virt. eigenvalues --    0.66825   0.67559   0.68206   0.68460   0.68996
 Alpha virt. eigenvalues --    0.69198   0.69663   0.69783   0.70147   0.70426
 Alpha virt. eigenvalues --    0.70681   0.71025   0.71366   0.71571   0.71743
 Alpha virt. eigenvalues --    0.71778   0.71914   0.72123   0.72142   0.72545
 Alpha virt. eigenvalues --    0.72672   0.73087   0.73183   0.73225   0.73645
 Alpha virt. eigenvalues --    0.74077   0.74349   0.74387   0.74736   0.75019
 Alpha virt. eigenvalues --    0.75106   0.75285   0.75943   0.76166   0.76537
 Alpha virt. eigenvalues --    0.76679   0.77254   0.77698   0.77802   0.78073
 Alpha virt. eigenvalues --    0.78317   0.78492   0.79076   0.79283   0.80020
 Alpha virt. eigenvalues --    0.80505   0.80878   0.81252   0.81873   0.81911
 Alpha virt. eigenvalues --    0.82510   0.83719   0.84208   0.85147   0.86583
 Alpha virt. eigenvalues --    0.86993   0.88672   0.89456   0.90505   0.91161
 Alpha virt. eigenvalues --    0.92540   0.92668   0.94795   0.95494   0.95909
 Alpha virt. eigenvalues --    0.96690   0.96862   0.97449   0.98074   0.98465
 Alpha virt. eigenvalues --    0.99936   1.00736   1.02437   1.03321   1.04227
 Alpha virt. eigenvalues --    1.04853   1.06588   1.06907   1.07056   1.09010
 Alpha virt. eigenvalues --    1.09101   1.10656   1.11110   1.11163   1.14476
 Alpha virt. eigenvalues --    1.14809   1.15055   1.15862   1.15967   1.17756
 Alpha virt. eigenvalues --    1.19197   1.19378   1.19661   1.21140   1.24926
 Alpha virt. eigenvalues --    1.25426   1.27973   1.28039   1.28204   1.28447
 Alpha virt. eigenvalues --    1.28663   1.29253   1.29427   1.29650   1.30218
 Alpha virt. eigenvalues --    1.30392   1.30805   1.31262   1.31333   1.31448
 Alpha virt. eigenvalues --    1.32573   1.34254   1.35277   1.36656   1.37485
 Alpha virt. eigenvalues --    1.39000   1.40038   1.40679   1.42795   1.43965
 Alpha virt. eigenvalues --    1.44365   1.45025   1.45978   1.46169   1.46809
 Alpha virt. eigenvalues --    1.47184   1.47752   1.48514   1.50198   1.50224
 Alpha virt. eigenvalues --    1.51163   1.51259   1.52340   1.52761   1.53151
 Alpha virt. eigenvalues --    1.53577   1.54460   1.55182   1.56435   1.57736
 Alpha virt. eigenvalues --    1.58084   1.59122   1.59245   1.60842   1.62085
 Alpha virt. eigenvalues --    1.63469   1.64749   1.65093   1.65663   1.65761
 Alpha virt. eigenvalues --    1.67091   1.67525   1.68767   1.69035   1.69431
 Alpha virt. eigenvalues --    1.69715   1.70234   1.70717   1.70782   1.70826
 Alpha virt. eigenvalues --    1.71276   1.71293   1.71516   1.71693   1.72390
 Alpha virt. eigenvalues --    1.72531   1.72931   1.73152   1.73941   1.73978
 Alpha virt. eigenvalues --    1.74471   1.75113   1.75222   1.75356   1.76147
 Alpha virt. eigenvalues --    1.76299   1.76413   1.76942   1.77628   1.77714
 Alpha virt. eigenvalues --    1.78054   1.78251   1.78472   1.78623   1.78836
 Alpha virt. eigenvalues --    1.79547   1.79634   1.79773   1.80394   1.80442
 Alpha virt. eigenvalues --    1.80664   1.80740   1.80902   1.81676   1.82226
 Alpha virt. eigenvalues --    1.82787   1.82845   1.83464   1.83758   1.84216
 Alpha virt. eigenvalues --    1.84763   1.85166   1.86226   1.86699   1.86931
 Alpha virt. eigenvalues --    1.87145   1.87434   1.88038   1.88349   1.89275
 Alpha virt. eigenvalues --    1.89629   1.89686   1.90308   1.90844   1.91560
 Alpha virt. eigenvalues --    1.92395   1.92772   1.94228   1.95002   1.96317
 Alpha virt. eigenvalues --    1.96834   1.97543   1.98488   1.98987   1.99767
 Alpha virt. eigenvalues --    2.01605   2.02820   2.03873   2.04102   2.04611
 Alpha virt. eigenvalues --    2.04780   2.05170   2.07050   2.07201   2.08029
 Alpha virt. eigenvalues --    2.08428   2.09586   2.10125   2.10194   2.11760
 Alpha virt. eigenvalues --    2.13274   2.13940   2.14686   2.14861   2.15052
 Alpha virt. eigenvalues --    2.15629   2.15831   2.16439   2.18201   2.19378
 Alpha virt. eigenvalues --    2.21049   2.21624   2.21878   2.24470   2.25372
 Alpha virt. eigenvalues --    2.26287   2.27516   2.27863   2.28169   2.28963
 Alpha virt. eigenvalues --    2.29356   2.30180   2.31708   2.32597   2.32839
 Alpha virt. eigenvalues --    2.33660   2.34575   2.35228   2.35350   2.35465
 Alpha virt. eigenvalues --    2.36818   2.37050   2.37575   2.38834   2.39522
 Alpha virt. eigenvalues --    2.39806   2.40879   2.41160   2.41296   2.41673
 Alpha virt. eigenvalues --    2.41880   2.42601   2.42918   2.44038   2.44495
 Alpha virt. eigenvalues --    2.45807   2.46044   2.48997   2.49391   2.49883
 Alpha virt. eigenvalues --    2.49914   2.50518   2.50799   2.51796   2.52441
 Alpha virt. eigenvalues --    2.52952   2.54163   2.54537   2.55900   2.57743
 Alpha virt. eigenvalues --    2.58214   2.58448   2.61309   2.61344   2.62217
 Alpha virt. eigenvalues --    2.64157   2.65154   2.65680   2.66665   2.67512
 Alpha virt. eigenvalues --    2.67887   2.68039   2.72291   2.72374   2.72562
 Alpha virt. eigenvalues --    2.73691   2.76708   2.77052   2.78836   2.79925
 Alpha virt. eigenvalues --    2.80480   2.81417   2.83823   2.84730   2.85978
 Alpha virt. eigenvalues --    2.88659   2.89367   2.92839   2.94280   2.99373
 Alpha virt. eigenvalues --    3.00071   3.14027   3.16988   3.42144   3.49008
 Alpha virt. eigenvalues --    3.56024   3.61624
          Condensed to atoms (all electrons):
 Mulliken charges:
               1
     1  C    0.051003
     2  C    0.040602
     3  C    0.025287
     4  C   -0.010580
     5  C    0.187694
     6  C   -0.065643
     7  C    0.005435
     8  C    0.012258
     9  C   -0.018800
    10  C    0.033813
    11  N   -0.311398
    12  C    0.069461
    13  C    0.049298
    14  C   -0.035742
    15  C    0.020424
    16  C   -0.013959
    17  C   -0.007595
    18  C   -0.007946
    19  C   -0.009662
    20  C   -0.009739
    21  C   -0.011247
    22  C   -0.017321
    23  C   -0.043364
    24  C   -0.011600
    25  C    0.079860
    26  O   -0.227696
    27  H   -0.032949
    28  H   -0.028135
    29  H   -0.053652
    30  H   -0.033817
    31  H   -0.037627
    32  H   -0.045306
    33  H    0.039962
    34  H    0.040091
    35  H    0.030041
    36  H    0.039313
    37  H    0.039761
    38  H    0.031353
    39  H    0.038954
    40  H    0.039270
    41  H    0.017090
    42  H    0.018370
    43  H    0.000556
    44  H    0.000833
    45  H    0.006528
    46  H    0.006722
    47  H    0.003224
    48  H    0.003353
    49  H    0.004796
    50  H    0.004848
    51  H    0.003787
    52  H    0.003855
    53  H    0.004316
    54  H    0.004331
    55  H    0.003726
    56  H    0.003771
    57  H    0.007812
    58  H    0.007817
    59  H    0.019153
    60  H    0.019197
    61  H    0.015813
 Sum of Mulliken charges =   0.00000
 Mulliken charges with hydrogens summed into heavy atoms:
               1
     1  C    0.051003
     2  C    0.040602
     3  C   -0.007661
     4  C   -0.038715
     5  C    0.187694
     6  C   -0.119295
     7  C   -0.039870
     8  C   -0.025369
     9  C   -0.018800
    10  C   -0.000004
    11  N   -0.311398
    12  C    0.179038
    13  C    0.049298
    14  C    0.044311
    15  C    0.055884
    16  C   -0.012571
    17  C    0.005655
    18  C   -0.001370
    19  C   -0.000018
    20  C   -0.002096
    21  C   -0.002600
    22  C   -0.009824
    23  C   -0.027734
    24  C    0.042563
    25  C    0.188975
    26  O   -0.227696
 Electronic spatial extent (au):  <R**2>=          53254.8089
 Charge=              0.0000 electrons
 Dipole moment (field-independent basis, Debye):
    X=              5.0092    Y=             -0.2698    Z=             -3.5567  Tot=              6.1494
 Quadrupole moment (field-independent basis, Debye-Ang):
   XX=           -147.7328   YY=           -164.4152   ZZ=           -166.2400
   XY=              1.6392   XZ=              8.3040   YZ=             -0.2967
 Traceless Quadrupole moment (field-independent basis, Debye-Ang):
   XX=             11.7299   YY=             -4.9525   ZZ=             -6.7773
   XY=              1.6392   XZ=              8.3040   YZ=             -0.2967
 Octapole moment (field-independent basis, Debye-Ang**2):
  XXX=           2649.0256  YYY=            -36.2727  ZZZ=           -499.7173  XYY=            807.5354
  XXY=             -9.7478  XXZ=           -193.0519  XZZ=            892.6597  YZZ=            -14.5348
  YYZ=           -151.7928  XYZ=              7.6095
 Hexadecapole moment (field-independent basis, Debye-Ang**3):
 XXXX=         -73299.5174 YYYY=           -302.5255 ZZZZ=          -2691.0788 XXXY=           -287.4276
 XXXZ=           4299.8239 YYYX=           -245.5491 YYYZ=            -51.1271 ZZZX=           4664.3327
 ZZZY=            -58.4148 XXYY=         -11854.5188 XXZZ=         -12604.6974 YYZZ=           -481.2900
 XXYZ=            -44.5318 YYXZ=           1467.1914 ZZXY=            -57.9090
 N-N= 1.990993593947D+03 E-N=-6.451866091728D+03  KE= 1.057228723168D+03
 1\1\GINC-BOOTES\SP\RCAM-B3LYP TD-FC\CC-pVDZ\C24H35N1O1\TBERGS\07-May-2
 017\0\\#CAM-B3LYP/cc-pVDZ nosymm TD(NStates=2, triplets) guess=read ge
 om=(allcheck,modredundant)\\L180tail deg\\0,1\C,0,-0.0013841092,0.1108
 408372,-0.1317882883\C,0,-0.0966111585,0.255561515,1.30000254\C,0,1.14
 06112828,0.3538729426,2.0264843762\C,0,2.3751792853,0.3117105319,1.410
 7997158\C,0,2.4679534185,0.1661771891,0.0060523312\C,0,1.2371429093,0.
 0687340255,-0.7447970738\C,0,-1.2202055088,0.0119548116,-0.8958922789\
 C,0,-2.4498258147,0.0514549215,-0.2752535604\C,0,-2.5601539724,0.18933
 97228,1.1217365802\C,0,-1.3505162532,0.2917878965,1.8985549992\N,0,3.6
 589051086,0.1155665024,-0.64065597\C,0,4.8919298078,0.2080893987,0.117
 1577379\C,0,-3.8465387649,0.22868364,1.8107324031\C,0,-5.1366526022,0.
 1220951225,1.0095684921\C,0,-6.38967139,0.1440034369,1.873794004\C,0,-
 7.6756163169,0.0464051299,1.0600095357\C,0,-8.9362243447,0.053720854,1
 .9190887478\C,0,-10.2282721591,-0.0291411584,1.1124298496\C,0,-11.4868
 774782,-0.0312939664,1.9744692864\C,0,-12.7805336893,-0.1036530203,1.1
 692683356\C,0,-14.0379313492,-0.1108547927,2.033022164\C,0,-15.3325670
 953,-0.1765510527,1.2292202326\C,0,-16.5895624171,-0.186166797,2.09393
 1553\C,0,-17.8772493478,-0.2494359827,1.2804025182\C,0,3.7370772389,-0
 .0315025201,-2.0865075283\O,0,-3.8938423603,0.3479967012,3.0445589947\
 H,0,1.0913768503,0.466039516,3.111580956\H,0,3.2738694643,0.3915567473
 ,2.0176998822\H,0,1.274494517,-0.0424526871,-1.826818117\H,0,-1.446168
 8154,0.3997881043,2.9780980385\H,0,-3.3485321936,-0.0270911834,-0.8877
 430194\H,0,-1.1498767182,-0.0957936262,-1.9799352927\H,0,-5.1118016237
 ,-0.801810753,0.4063362778\H,0,-5.1713471574,0.9462387071,0.2755013852
 \H,0,4.7899446624,-0.0393866821,-2.3824147348\H,0,3.276527593,-0.97401
 42464,-2.4202993605\H,0,3.2397000573,0.8036355053,-2.6029391746\H,0,5.
 7431236474,0.1420352659,-0.5660103311\H,0,4.9480026536,1.1640392409,0.
 6634251246\H,0,4.9636030439,-0.6089613125,0.8538017912\H,0,-6.34377699
 28,-0.6841801266,2.6000432579\H,0,-6.3990655261,1.0664360422,2.4770327
 09\H,0,-7.656033794,-0.8746185274,0.4496953253\H,0,-7.71935328,0.88450
 23596,0.341089007\H,0,-8.8957459902,-0.7905006142,2.6308148697\H,0,-8.
 9501915405,0.9699577985,2.536545091\H,0,-10.2116337196,-0.9416181655,0
 .489416919\H,0,-10.2716530708,0.8194346084,0.4059966546\H,0,-11.446178
 1911,-0.8839828866,2.6760849125\H,0,-11.4994682725,0.8775615709,2.6028
 474211\H,0,-12.7668356392,-1.0103491504,0.5377938743\H,0,-12.822964624
 5,0.7515242871,0.4707709532\H,0,-13.9970283325,-0.9685463106,2.7285649
 267\H,0,-14.0488501558,0.7936157808,2.6677861296\H,0,-15.3221284048,-1
 .0800945371,0.5927944721\H,0,-15.3752858814,0.6824532132,0.5350938123\
 H,0,-16.5465485149,-1.0456040896,2.7858713697\H,0,-16.5979671257,0.715
 9569402,2.7306401535\H,0,-17.9095824171,-1.1584221569,0.6579877934\H,0
 ,-17.9627618193,0.6164557459,0.6039443656\H,0,-18.7668056077,-0.256347
 2669,1.9284318595\\Version=ES64L-G09RevD.01\HF=-1065.0554858\RMSD=6.46
 1e-09\PG=C01 [X(C24H35N1O1)]\\@


 THE BEST WAY TO CONVINCE A FOOL THAT HE IS WRONG 
 IS TO LET HIM HAVE HIS OWN WAY.

                                         JOSH BILLINGS
 Job cpu time:       0 days  1 hours  2 minutes  6.6 seconds.
 File lengths (MBytes):  RWF=    350 Int=      0 D2E=      0 Chk=     72 Scr=      1
 Normal termination of Gaussian 09 at Sun May  7 05:31:31 2017.
