 Entering Gaussian System, Link 0=g09
 Input=L90tailexcited.com
 Output=L90tailexcited.log
 Initial command:
 /home/sknippen/PROGRAMS/GAUSSIAN/g09.d01/tar//g09/l1.exe "/scratch/tbergs/Gau-17820.inp" -scrdir="/scratch/tbergs/"
 Entering Link 1 = /home/sknippen/PROGRAMS/GAUSSIAN/g09.d01/tar//g09/l1.exe PID=     17822.
  
 Copyright (c) 1988,1990,1992,1993,1995,1998,2003,2009,2013,
            Gaussian, Inc.  All Rights Reserved.
  
 This is part of the Gaussian(R) 09 program.  It is based on
 the Gaussian(R) 03 system (copyright 2003, Gaussian, Inc.),
 the Gaussian(R) 98 system (copyright 1998, Gaussian, Inc.),
 the Gaussian(R) 94 system (copyright 1995, Gaussian, Inc.),
 the Gaussian 92(TM) system (copyright 1992, Gaussian, Inc.),
 the Gaussian 90(TM) system (copyright 1990, Gaussian, Inc.),
 the Gaussian 88(TM) system (copyright 1988, Gaussian, Inc.),
 the Gaussian 86(TM) system (copyright 1986, Carnegie Mellon
 University), and the Gaussian 82(TM) system (copyright 1983,
 Carnegie Mellon University). Gaussian is a federally registered
 trademark of Gaussian, Inc.
  
 This software contains proprietary and confidential information,
 including trade secrets, belonging to Gaussian, Inc.
  
 This software is provided under written license and may be
 used, copied, transmitted, or stored only in accord with that
 written license.
  
 The following legend is applicable only to US Government
 contracts under FAR:
  
                    RESTRICTED RIGHTS LEGEND
  
 Use, reproduction and disclosure by the US Government is
 subject to restrictions as set forth in subparagraphs (a)
 and (c) of the Commercial Computer Software - Restricted
 Rights clause in FAR 52.227-19.
  
 Gaussian, Inc.
 340 Quinnipiac St., Bldg. 40, Wallingford CT 06492
  
  
 ---------------------------------------------------------------
 Warning -- This program may not be used in any manner that
 competes with the business of Gaussian, Inc. or will provide
 assistance to any competitor of Gaussian, Inc.  The licensee
 of this program is prohibited from giving any competitor of
 Gaussian, Inc. access to this program.  By using this program,
 the user acknowledges that Gaussian, Inc. is engaged in the
 business of creating and licensing software in the field of
 computational chemistry and represents and warrants to the
 licensee that it is not a competitor of Gaussian, Inc. and that
 it will not use this program in any manner prohibited above.
 ---------------------------------------------------------------
  

 Cite this work as:
 Gaussian 09, Revision D.01,
 M. J. Frisch, G. W. Trucks, H. B. Schlegel, G. E. Scuseria, 
 M. A. Robb, J. R. Cheeseman, G. Scalmani, V. Barone, B. Mennucci, 
 G. A. Petersson, H. Nakatsuji, M. Caricato, X. Li, H. P. Hratchian, 
 A. F. Izmaylov, J. Bloino, G. Zheng, J. L. Sonnenberg, M. Hada, 
 M. Ehara, K. Toyota, R. Fukuda, J. Hasegawa, M. Ishida, T. Nakajima, 
 Y. Honda, O. Kitao, H. Nakai, T. Vreven, J. A. Montgomery, Jr., 
 J. E. Peralta, F. Ogliaro, M. Bearpark, J. J. Heyd, E. Brothers, 
 K. N. Kudin, V. N. Staroverov, T. Keith, R. Kobayashi, J. Normand, 
 K. Raghavachari, A. Rendell, J. C. Burant, S. S. Iyengar, J. Tomasi, 
 M. Cossi, N. Rega, J. M. Millam, M. Klene, J. E. Knox, J. B. Cross, 
 V. Bakken, C. Adamo, J. Jaramillo, R. Gomperts, R. E. Stratmann, 
 O. Yazyev, A. J. Austin, R. Cammi, C. Pomelli, J. W. Ochterski, 
 R. L. Martin, K. Morokuma, V. G. Zakrzewski, G. A. Voth, 
 P. Salvador, J. J. Dannenberg, S. Dapprich, A. D. Daniels, 
 O. Farkas, J. B. Foresman, J. V. Ortiz, J. Cioslowski, 
 and D. J. Fox, Gaussian, Inc., Wallingford CT, 2013.
 
 ******************************************
 Gaussian 09:  ES64L-G09RevD.01 24-Apr-2013
                 6-May-2017 
 ******************************************
 %mem=50Gb
 %nprocs=20
 Will use up to   20 processors via shared memory.
 %chk=L90tail.chk
 ----------------------------------------------------------------------
 #CAM-B3LYP/cc-pVDZ opt(noeigentest,modredundant) nosymm SCRF=(Solvent=
 water) TD(NStates=3) guess=read geom=(allcheck,modredundant)
 ----------------------------------------------------------------------
 1/11=1,14=-1,18=120,19=15,26=3,29=7,38=1/1,3;
 2/9=110,12=2,15=1,40=1/2;
 3/5=16,11=9,14=-4,16=1,25=1,30=1,70=2201,71=1,72=1,74=-40,116=-2/1,2,8,3;
 4/5=1/1;
 5/5=2,38=6,53=1/2;
 8/6=1,10=1,108=3/1;
 9/15=2,41=3,42=1,70=2/14;
 10/5=4,31=1/2;
 6/7=2,8=2,9=2,10=2/1;
 7/12=6,13=5,30=1/1,2,3,16;
 1/11=1,14=-1,18=20,19=15,26=3/3(2);
 2/9=110,15=1/2;
 99//99;
 2/9=110,15=1/2;
 3/5=16,11=9,14=-2,16=1,25=1,30=1,70=2205,71=1,72=1,74=-40/1,2,8,3;
 4/5=5,16=3,69=1/1;
 5/5=2,38=5,53=1/2;
 8/6=1,10=1,108=3/1;
 9/15=2,41=3,42=1,49=4,70=2/14;
 10/5=4,31=1/2;
 7/12=6,13=5,30=1/1,2,3,16;
 1/11=1,14=-1,18=20,19=15,26=3/3(-8);
 2/9=110,15=1/2;
 6/7=2,8=2,9=2,10=2/1;
 99//99;
 Structure from the checkpoint file:  "L90tail.chk"
 -----------
 L90tail deg
 -----------
 Charge =  0 Multiplicity = 1
 Redundant internal coordinates found in file.
 C,0,-0.0632668558,0.018531587,-0.0420472999
 C,0,-0.0536682981,0.1834297872,1.3830166281
 C,0,1.205486615,0.3741742491,2.0176246488
 C,0,2.379104789,0.3972550282,1.3015915373
 C,0,2.3894611855,0.2212137028,-0.1262559013
 C,0,1.154749004,0.0473795885,-0.7672233088
 C,0,-1.3237428262,-0.1679499088,-0.6850263045
 C,0,-2.4978216201,-0.193952581,0.0377805448
 C,0,-2.4848167472,-0.0294036286,1.4521996242
 C,0,-1.2778486682,0.1554501811,2.1030004126
 N,0,3.5830308486,0.2203455063,-0.8205895728
 C,0,4.823863732,0.5923144399,-0.1565622326
 C,0,-3.7801770632,-0.1066663087,2.2292679184
 C,0,-4.5070467732,1.2008067049,2.4674624545
 C,0,-5.8103383404,1.0795541936,3.2543789425
 C,0,-6.5104544781,2.4260728093,3.4620048316
 C,0,-7.8111755728,2.3189858196,4.2650098327
 C,0,-8.5179255081,3.6626145368,4.4716548127
 C,0,-9.8121372867,3.5598206038,5.2858716568
 C,0,-10.5192492334,4.9036428766,5.4906860731
 C,0,-11.8093168544,4.8033344991,6.3117418579
 C,0,-12.5164254439,6.1469560262,6.5162592951
 C,0,-13.804927652,6.0472626753,7.3400261583
 C,0,-14.503819508,7.3943226209,7.5388883545
 C,0,3.5618360362,0.1580818877,-2.2722392016
 O,0,-4.2098980227,-1.1783710728,2.6248974328
 H,0,1.2358132393,0.5085172672,3.1020937148
 H,0,3.3152969774,0.5502180847,1.836112985
 H,0,1.1016649425,-0.0738688098,-1.8484387967
 H,0,-1.2493312463,0.2808649708,3.1892116705
 H,0,-3.4498411094,-0.3445918759,-0.4771338669
 H,0,-1.3487923496,-0.2952559004,-1.7704652677
 H,0,-4.6746538467,1.6623479683,1.4751523916
 H,0,-3.7940512871,1.8838555995,2.9677306271
 H,0,4.5918299244,0.1230375839,-2.6470145593
 H,0,3.0436804577,-0.749858318,-2.6244141231
 H,0,3.0554250785,1.0312115908,-2.7281294919
 H,0,5.6482602918,0.5119346502,-0.8753627147
 H,0,4.8078761442,1.6286416723,0.2316893261
 H,0,5.051994213,-0.0816540905,0.6857056768
 H,0,-6.4871280004,0.3833560937,2.7291041773
 H,0,-5.5991779167,0.6135194407,4.2327268011
 H,0,-6.724816259,2.8830455257,2.4775614536
 H,0,-5.8210402119,3.1222727731,3.9757641521
 H,0,-8.4987972499,1.6190008411,3.7538149928
 H,0,-7.5938873115,1.865329836,5.2504389676
 H,0,-8.7415851772,4.1121591515,3.4856664224
 H,0,-7.826055151,4.3645617467,4.9746174116
 H,0,-10.5037310696,2.8562454441,4.7847783439
 H,0,-9.5872103875,3.1122467273,6.272506766
 H,0,-10.7483695784,5.3489034006,4.5039475994
 H,0,-9.8253721656,5.6084096298,5.9870072997
 H,0,-12.5031138439,4.0979194103,5.8161715128
 H,0,-11.579445888,4.3587075931,7.2986369703
 H,0,-12.7487896054,6.591357739,5.5296152076
 H,0,-11.8224420432,6.8534219289,7.0105247622
 H,0,-14.4979908803,5.3413085941,6.8457914753
 H,0,-13.5721574889,5.6035139238,8.3257807442
 H,0,-14.7795077973,7.8480102708,6.571264168
 H,0,-13.848635838,8.1105743653,8.0640397162
 H,0,-15.4262230234,7.2884433476,8.1328392889
 Recover connectivity data from disk.
 The following ModRedundant input section has been read:
 D      10       9      13      14 F                                           
 

 GradGradGradGradGradGradGradGradGradGradGradGradGradGradGradGradGradGrad
 Berny optimization.
 Initialization pass.
                           ----------------------------
                           !    Initial Parameters    !
                           ! (Angstroms and Degrees)  !
 --------------------------                            --------------------------
 ! Name  Definition              Value          Derivative Info.                !
 --------------------------------------------------------------------------------
 ! R1    R(1,2)                  1.4346         estimate D2E/DX2                !
 ! R2    R(1,6)                  1.4178         estimate D2E/DX2                !
 ! R3    R(1,7)                  1.4272         estimate D2E/DX2                !
 ! R4    R(2,3)                  1.4229         estimate D2E/DX2                !
 ! R5    R(2,10)                 1.4205         estimate D2E/DX2                !
 ! R6    R(3,4)                  1.375          estimate D2E/DX2                !
 ! R7    R(3,27)                 1.0932         estimate D2E/DX2                !
 ! R8    R(4,5)                  1.4387         estimate D2E/DX2                !
 ! R9    R(4,28)                 1.0888         estimate D2E/DX2                !
 ! R10   R(5,6)                  1.402          estimate D2E/DX2                !
 ! R11   R(5,11)                 1.3808         estimate D2E/DX2                !
 ! R12   R(6,29)                 1.0893         estimate D2E/DX2                !
 ! R13   R(7,8)                  1.379          estimate D2E/DX2                !
 ! R14   R(7,32)                 1.0932         estimate D2E/DX2                !
 ! R15   R(8,9)                  1.424          estimate D2E/DX2                !
 ! R16   R(8,31)                 1.0928         estimate D2E/DX2                !
 ! R17   R(9,10)                 1.3836         estimate D2E/DX2                !
 ! R18   R(9,13)                 1.5125         estimate D2E/DX2                !
 ! R19   R(10,30)                1.0938         estimate D2E/DX2                !
 ! R20   R(11,12)                1.4557         estimate D2E/DX2                !
 ! R21   R(11,25)                1.4531         estimate D2E/DX2                !
 ! R22   R(12,38)                1.0967         estimate D2E/DX2                !
 ! R23   R(12,39)                1.1068         estimate D2E/DX2                !
 ! R24   R(12,40)                1.1026         estimate D2E/DX2                !
 ! R25   R(13,14)                1.5148         estimate D2E/DX2                !
 ! R26   R(13,26)                1.2205         estimate D2E/DX2                !
 ! R27   R(14,15)                1.5273         estimate D2E/DX2                !
 ! R28   R(14,33)                1.1072         estimate D2E/DX2                !
 ! R29   R(14,34)                1.1069         estimate D2E/DX2                !
 ! R30   R(15,16)                1.5318         estimate D2E/DX2                !
 ! R31   R(15,41)                1.1039         estimate D2E/DX2                !
 ! R32   R(15,42)                1.1041         estimate D2E/DX2                !
 ! R33   R(16,17)                1.5324         estimate D2E/DX2                !
 ! R34   R(16,43)                1.1063         estimate D2E/DX2                !
 ! R35   R(16,44)                1.1063         estimate D2E/DX2                !
 ! R36   R(17,18)                1.5322         estimate D2E/DX2                !
 ! R37   R(17,45)                1.1064         estimate D2E/DX2                !
 ! R38   R(17,46)                1.1064         estimate D2E/DX2                !
 ! R39   R(18,19)                1.5325         estimate D2E/DX2                !
 ! R40   R(18,47)                1.1065         estimate D2E/DX2                !
 ! R41   R(18,48)                1.1065         estimate D2E/DX2                !
 ! R42   R(19,20)                1.5323         estimate D2E/DX2                !
 ! R43   R(19,49)                1.1065         estimate D2E/DX2                !
 ! R44   R(19,50)                1.1065         estimate D2E/DX2                !
 ! R45   R(20,21)                1.5325         estimate D2E/DX2                !
 ! R46   R(20,51)                1.1065         estimate D2E/DX2                !
 ! R47   R(20,52)                1.1066         estimate D2E/DX2                !
 ! R48   R(21,22)                1.532          estimate D2E/DX2                !
 ! R49   R(21,53)                1.1066         estimate D2E/DX2                !
 ! R50   R(21,54)                1.1066         estimate D2E/DX2                !
 ! R51   R(22,23)                1.5326         estimate D2E/DX2                !
 ! R52   R(22,55)                1.1068         estimate D2E/DX2                !
 ! R53   R(22,56)                1.1068         estimate D2E/DX2                !
 ! R54   R(23,24)                1.5305         estimate D2E/DX2                !
 ! R55   R(23,57)                1.1059         estimate D2E/DX2                !
 ! R56   R(23,58)                1.1058         estimate D2E/DX2                !
 ! R57   R(24,59)                1.1037         estimate D2E/DX2                !
 ! R58   R(24,60)                1.1037         estimate D2E/DX2                !
 ! R59   R(24,61)                1.1022         estimate D2E/DX2                !
 ! R60   R(25,35)                1.0966         estimate D2E/DX2                !
 ! R61   R(25,36)                1.1031         estimate D2E/DX2                !
 ! R62   R(25,37)                1.1075         estimate D2E/DX2                !
 ! A1    A(2,1,6)              119.9985         estimate D2E/DX2                !
 ! A2    A(2,1,7)              117.933          estimate D2E/DX2                !
 ! A3    A(6,1,7)              122.0683         estimate D2E/DX2                !
 ! A4    A(1,2,3)              117.6692         estimate D2E/DX2                !
 ! A5    A(1,2,10)             119.6999         estimate D2E/DX2                !
 ! A6    A(3,2,10)             122.6307         estimate D2E/DX2                !
 ! A7    A(2,3,4)              121.69           estimate D2E/DX2                !
 ! A8    A(2,3,27)             118.9125         estimate D2E/DX2                !
 ! A9    A(4,3,27)             119.3972         estimate D2E/DX2                !
 ! A10   A(3,4,5)              121.3937         estimate D2E/DX2                !
 ! A11   A(3,4,28)             118.7245         estimate D2E/DX2                !
 ! A12   A(5,4,28)             119.8816         estimate D2E/DX2                !
 ! A13   A(4,5,6)              117.553          estimate D2E/DX2                !
 ! A14   A(4,5,11)             120.3541         estimate D2E/DX2                !
 ! A15   A(6,5,11)             122.0922         estimate D2E/DX2                !
 ! A16   A(1,6,5)              121.6854         estimate D2E/DX2                !
 ! A17   A(1,6,29)             117.6161         estimate D2E/DX2                !
 ! A18   A(5,6,29)             120.6982         estimate D2E/DX2                !
 ! A19   A(1,7,8)              121.2155         estimate D2E/DX2                !
 ! A20   A(1,7,32)             118.8669         estimate D2E/DX2                !
 ! A21   A(8,7,32)             119.9173         estimate D2E/DX2                !
 ! A22   A(7,8,9)              120.7087         estimate D2E/DX2                !
 ! A23   A(7,8,31)             119.8253         estimate D2E/DX2                !
 ! A24   A(9,8,31)             119.4659         estimate D2E/DX2                !
 ! A25   A(8,9,10)             119.379          estimate D2E/DX2                !
 ! A26   A(8,9,13)             119.773          estimate D2E/DX2                !
 ! A27   A(10,9,13)            120.8131         estimate D2E/DX2                !
 ! A28   A(2,10,9)             121.0636         estimate D2E/DX2                !
 ! A29   A(2,10,30)            118.5949         estimate D2E/DX2                !
 ! A30   A(9,10,30)            120.3413         estimate D2E/DX2                !
 ! A31   A(5,11,12)            120.4825         estimate D2E/DX2                !
 ! A32   A(5,11,25)            119.3235         estimate D2E/DX2                !
 ! A33   A(12,11,25)           118.6255         estimate D2E/DX2                !
 ! A34   A(11,12,38)           108.8478         estimate D2E/DX2                !
 ! A35   A(11,12,39)           112.7662         estimate D2E/DX2                !
 ! A36   A(11,12,40)           111.6318         estimate D2E/DX2                !
 ! A37   A(38,12,39)           108.0231         estimate D2E/DX2                !
 ! A38   A(38,12,40)           107.4783         estimate D2E/DX2                !
 ! A39   A(39,12,40)           107.9007         estimate D2E/DX2                !
 ! A40   A(9,13,14)            116.5929         estimate D2E/DX2                !
 ! A41   A(9,13,26)            120.8573         estimate D2E/DX2                !
 ! A42   A(14,13,26)           122.5458         estimate D2E/DX2                !
 ! A43   A(13,14,15)           114.9595         estimate D2E/DX2                !
 ! A44   A(13,14,33)           106.9494         estimate D2E/DX2                !
 ! A45   A(13,14,34)           107.1344         estimate D2E/DX2                !
 ! A46   A(15,14,33)           111.4515         estimate D2E/DX2                !
 ! A47   A(15,14,34)           111.4572         estimate D2E/DX2                !
 ! A48   A(33,14,34)           104.2023         estimate D2E/DX2                !
 ! A49   A(14,15,16)           112.9596         estimate D2E/DX2                !
 ! A50   A(14,15,41)           109.1519         estimate D2E/DX2                !
 ! A51   A(14,15,42)           109.0797         estimate D2E/DX2                !
 ! A52   A(16,15,41)           109.7954         estimate D2E/DX2                !
 ! A53   A(16,15,42)           109.7771         estimate D2E/DX2                !
 ! A54   A(41,15,42)           105.8247         estimate D2E/DX2                !
 ! A55   A(15,16,17)           113.4259         estimate D2E/DX2                !
 ! A56   A(15,16,43)           109.3325         estimate D2E/DX2                !
 ! A57   A(15,16,44)           109.3481         estimate D2E/DX2                !
 ! A58   A(17,16,43)           109.3113         estimate D2E/DX2                !
 ! A59   A(17,16,44)           109.2435         estimate D2E/DX2                !
 ! A60   A(43,16,44)           105.905          estimate D2E/DX2                !
 ! A61   A(16,17,18)           113.6367         estimate D2E/DX2                !
 ! A62   A(16,17,45)           109.2467         estimate D2E/DX2                !
 ! A63   A(16,17,46)           109.1891         estimate D2E/DX2                !
 ! A64   A(18,17,45)           109.2962         estimate D2E/DX2                !
 ! A65   A(18,17,46)           109.2714         estimate D2E/DX2                !
 ! A66   A(45,17,46)           105.9122         estimate D2E/DX2                !
 ! A67   A(17,18,19)           113.7277         estimate D2E/DX2                !
 ! A68   A(17,18,47)           109.2291         estimate D2E/DX2                !
 ! A69   A(17,18,48)           109.22           estimate D2E/DX2                !
 ! A70   A(19,18,47)           109.2684         estimate D2E/DX2                !
 ! A71   A(19,18,48)           109.2142         estimate D2E/DX2                !
 ! A72   A(47,18,48)           105.8846         estimate D2E/DX2                !
 ! A73   A(18,19,20)           113.6985         estimate D2E/DX2                !
 ! A74   A(18,19,49)           109.2616         estimate D2E/DX2                !
 ! A75   A(18,19,50)           109.2207         estimate D2E/DX2                !
 ! A76   A(20,19,49)           109.2532         estimate D2E/DX2                !
 ! A77   A(20,19,50)           109.2305         estimate D2E/DX2                !
 ! A78   A(49,19,50)           105.8815         estimate D2E/DX2                !
 ! A79   A(19,20,21)           113.7469         estimate D2E/DX2                !
 ! A80   A(19,20,51)           109.2242         estimate D2E/DX2                !
 ! A81   A(19,20,52)           109.217          estimate D2E/DX2                !
 ! A82   A(21,20,51)           109.2566         estimate D2E/DX2                !
 ! A83   A(21,20,52)           109.2232         estimate D2E/DX2                !
 ! A84   A(51,20,52)           105.874          estimate D2E/DX2                !
 ! A85   A(20,21,22)           113.7444         estimate D2E/DX2                !
 ! A86   A(20,21,53)           109.2434         estimate D2E/DX2                !
 ! A87   A(20,21,54)           109.2236         estimate D2E/DX2                !
 ! A88   A(22,21,53)           109.2369         estimate D2E/DX2                !
 ! A89   A(22,21,54)           109.221          estimate D2E/DX2                !
 ! A90   A(53,21,54)           105.8729         estimate D2E/DX2                !
 ! A91   A(21,22,23)           113.7501         estimate D2E/DX2                !
 ! A92   A(21,22,55)           109.2714         estimate D2E/DX2                !
 ! A93   A(21,22,56)           109.2694         estimate D2E/DX2                !
 ! A94   A(23,22,55)           109.1943         estimate D2E/DX2                !
 ! A95   A(23,22,56)           109.1868         estimate D2E/DX2                !
 ! A96   A(55,22,56)           105.8695         estimate D2E/DX2                !
 ! A97   A(22,23,24)           113.3593         estimate D2E/DX2                !
 ! A98   A(22,23,57)           109.16           estimate D2E/DX2                !
 ! A99   A(22,23,58)           109.1645         estimate D2E/DX2                !
 ! A100  A(24,23,57)           109.4953         estimate D2E/DX2                !
 ! A101  A(24,23,58)           109.4801         estimate D2E/DX2                !
 ! A102  A(57,23,58)           105.9112         estimate D2E/DX2                !
 ! A103  A(23,24,59)           111.219          estimate D2E/DX2                !
 ! A104  A(23,24,60)           111.2185         estimate D2E/DX2                !
 ! A105  A(23,24,61)           111.5687         estimate D2E/DX2                !
 ! A106  A(59,24,60)           107.3783         estimate D2E/DX2                !
 ! A107  A(59,24,61)           107.6315         estimate D2E/DX2                !
 ! A108  A(60,24,61)           107.6223         estimate D2E/DX2                !
 ! A109  A(11,25,35)           109.2126         estimate D2E/DX2                !
 ! A110  A(11,25,36)           111.1644         estimate D2E/DX2                !
 ! A111  A(11,25,37)           112.5874         estimate D2E/DX2                !
 ! A112  A(35,25,36)           107.8046         estimate D2E/DX2                !
 ! A113  A(35,25,37)           108.2992         estimate D2E/DX2                !
 ! A114  A(36,25,37)           107.6186         estimate D2E/DX2                !
 ! D1    D(6,1,2,3)              0.0721         estimate D2E/DX2                !
 ! D2    D(6,1,2,10)           179.9065         estimate D2E/DX2                !
 ! D3    D(7,1,2,3)           -179.7595         estimate D2E/DX2                !
 ! D4    D(7,1,2,10)             0.0749         estimate D2E/DX2                !
 ! D5    D(2,1,6,5)              0.655          estimate D2E/DX2                !
 ! D6    D(2,1,6,29)          -179.5252         estimate D2E/DX2                !
 ! D7    D(7,1,6,5)           -179.5205         estimate D2E/DX2                !
 ! D8    D(7,1,6,29)             0.2993         estimate D2E/DX2                !
 ! D9    D(2,1,7,8)             -0.2139         estimate D2E/DX2                !
 ! D10   D(2,1,7,32)          -179.9927         estimate D2E/DX2                !
 ! D11   D(6,1,7,8)            179.9582         estimate D2E/DX2                !
 ! D12   D(6,1,7,32)             0.1794         estimate D2E/DX2                !
 ! D13   D(1,2,3,4)             -0.205          estimate D2E/DX2                !
 ! D14   D(1,2,3,27)           179.6029         estimate D2E/DX2                !
 ! D15   D(10,2,3,4)           179.9658         estimate D2E/DX2                !
 ! D16   D(10,2,3,27)           -0.2263         estimate D2E/DX2                !
 ! D17   D(1,2,10,9)             0.0312         estimate D2E/DX2                !
 ! D18   D(1,2,10,30)          179.8705         estimate D2E/DX2                !
 ! D19   D(3,2,10,9)           179.857          estimate D2E/DX2                !
 ! D20   D(3,2,10,30)           -0.3036         estimate D2E/DX2                !
 ! D21   D(2,3,4,5)             -0.3715         estimate D2E/DX2                !
 ! D22   D(2,3,4,28)           179.7789         estimate D2E/DX2                !
 ! D23   D(27,3,4,5)           179.8215         estimate D2E/DX2                !
 ! D24   D(27,3,4,28)           -0.0281         estimate D2E/DX2                !
 ! D25   D(3,4,5,6)              1.0618         estimate D2E/DX2                !
 ! D26   D(3,4,5,11)          -178.644          estimate D2E/DX2                !
 ! D27   D(28,4,5,6)          -179.0902         estimate D2E/DX2                !
 ! D28   D(28,4,5,11)            1.204          estimate D2E/DX2                !
 ! D29   D(4,5,6,1)             -1.1976         estimate D2E/DX2                !
 ! D30   D(4,5,6,29)           178.988          estimate D2E/DX2                !
 ! D31   D(11,5,6,1)           178.5027         estimate D2E/DX2                !
 ! D32   D(11,5,6,29)           -1.3117         estimate D2E/DX2                !
 ! D33   D(4,5,11,12)           -9.1399         estimate D2E/DX2                !
 ! D34   D(4,5,11,25)         -174.666          estimate D2E/DX2                !
 ! D35   D(6,5,11,12)          171.168          estimate D2E/DX2                !
 ! D36   D(6,5,11,25)            5.6419         estimate D2E/DX2                !
 ! D37   D(1,7,8,9)              0.246          estimate D2E/DX2                !
 ! D38   D(1,7,8,31)          -179.61           estimate D2E/DX2                !
 ! D39   D(32,7,8,9)          -179.9775         estimate D2E/DX2                !
 ! D40   D(32,7,8,31)            0.1666         estimate D2E/DX2                !
 ! D41   D(7,8,9,10)            -0.1334         estimate D2E/DX2                !
 ! D42   D(7,8,9,13)          -178.0045         estimate D2E/DX2                !
 ! D43   D(31,8,9,10)          179.723          estimate D2E/DX2                !
 ! D44   D(31,8,9,13)            1.852          estimate D2E/DX2                !
 ! D45   D(8,9,10,2)            -0.0052         estimate D2E/DX2                !
 ! D46   D(8,9,10,30)         -179.8417         estimate D2E/DX2                !
 ! D47   D(13,9,10,2)          177.8431         estimate D2E/DX2                !
 ! D48   D(13,9,10,30)          -1.9934         estimate D2E/DX2                !
 ! D49   D(8,9,13,14)          -92.1602         estimate D2E/DX2                !
 ! D50   D(8,9,13,26)           87.1223         estimate D2E/DX2                !
 ! D51   D(10,9,13,14)          89.9999         Frozen                          !
 ! D52   D(10,9,13,26)         -90.7176         estimate D2E/DX2                !
 ! D53   D(5,11,12,38)         179.1874         estimate D2E/DX2                !
 ! D54   D(5,11,12,39)         -60.9574         estimate D2E/DX2                !
 ! D55   D(5,11,12,40)          60.7122         estimate D2E/DX2                !
 ! D56   D(25,11,12,38)        -15.1872         estimate D2E/DX2                !
 ! D57   D(25,11,12,39)        104.668          estimate D2E/DX2                !
 ! D58   D(25,11,12,40)       -133.6623         estimate D2E/DX2                !
 ! D59   D(5,11,25,35)        -177.5765         estimate D2E/DX2                !
 ! D60   D(5,11,25,36)         -58.7507         estimate D2E/DX2                !
 ! D61   D(5,11,25,37)          62.0862         estimate D2E/DX2                !
 ! D62   D(12,11,25,35)         16.6283         estimate D2E/DX2                !
 ! D63   D(12,11,25,36)        135.4541         estimate D2E/DX2                !
 ! D64   D(12,11,25,37)       -103.7091         estimate D2E/DX2                !
 ! D65   D(9,13,14,15)         179.9547         estimate D2E/DX2                !
 ! D66   D(9,13,14,33)          55.6525         estimate D2E/DX2                !
 ! D67   D(9,13,14,34)         -55.5926         estimate D2E/DX2                !
 ! D68   D(26,13,14,15)          0.6854         estimate D2E/DX2                !
 ! D69   D(26,13,14,33)       -123.6168         estimate D2E/DX2                !
 ! D70   D(26,13,14,34)        125.1382         estimate D2E/DX2                !
 ! D71   D(13,14,15,16)       -179.6848         estimate D2E/DX2                !
 ! D72   D(13,14,15,41)        -57.2406         estimate D2E/DX2                !
 ! D73   D(13,14,15,42)         57.9466         estimate D2E/DX2                !
 ! D74   D(33,14,15,16)        -57.7887         estimate D2E/DX2                !
 ! D75   D(33,14,15,41)         64.6555         estimate D2E/DX2                !
 ! D76   D(33,14,15,42)        179.8427         estimate D2E/DX2                !
 ! D77   D(34,14,15,16)         58.1672         estimate D2E/DX2                !
 ! D78   D(34,14,15,41)       -179.3886         estimate D2E/DX2                !
 ! D79   D(34,14,15,42)        -64.2014         estimate D2E/DX2                !
 ! D80   D(14,15,16,17)       -179.3122         estimate D2E/DX2                !
 ! D81   D(14,15,16,43)         58.4151         estimate D2E/DX2                !
 ! D82   D(14,15,16,44)        -57.1154         estimate D2E/DX2                !
 ! D83   D(41,15,16,17)         58.6041         estimate D2E/DX2                !
 ! D84   D(41,15,16,43)        -63.6686         estimate D2E/DX2                !
 ! D85   D(41,15,16,44)       -179.1992         estimate D2E/DX2                !
 ! D86   D(42,15,16,17)        -57.3346         estimate D2E/DX2                !
 ! D87   D(42,15,16,43)       -179.6073         estimate D2E/DX2                !
 ! D88   D(42,15,16,44)         64.8622         estimate D2E/DX2                !
 ! D89   D(15,16,17,18)       -179.8113         estimate D2E/DX2                !
 ! D90   D(15,16,17,45)        -57.4759         estimate D2E/DX2                !
 ! D91   D(15,16,17,46)         57.9277         estimate D2E/DX2                !
 ! D92   D(43,16,17,18)        -57.5268         estimate D2E/DX2                !
 ! D93   D(43,16,17,45)         64.8086         estimate D2E/DX2                !
 ! D94   D(43,16,17,46)       -179.7878         estimate D2E/DX2                !
 ! D95   D(44,16,17,18)         57.9339         estimate D2E/DX2                !
 ! D96   D(44,16,17,45)       -179.7307         estimate D2E/DX2                !
 ! D97   D(44,16,17,46)        -64.3271         estimate D2E/DX2                !
 ! D98   D(16,17,18,19)       -179.4514         estimate D2E/DX2                !
 ! D99   D(16,17,18,47)         58.1992         estimate D2E/DX2                !
 ! D100  D(16,17,18,48)        -57.1788         estimate D2E/DX2                !
 ! D101  D(45,17,18,19)         58.2405         estimate D2E/DX2                !
 ! D102  D(45,17,18,47)        -64.1089         estimate D2E/DX2                !
 ! D103  D(45,17,18,48)       -179.4869         estimate D2E/DX2                !
 ! D104  D(46,17,18,19)        -57.236          estimate D2E/DX2                !
 ! D105  D(46,17,18,47)       -179.5854         estimate D2E/DX2                !
 ! D106  D(46,17,18,48)         65.0366         estimate D2E/DX2                !
 ! D107  D(17,18,19,20)       -179.9305         estimate D2E/DX2                !
 ! D108  D(17,18,19,49)        -57.597          estimate D2E/DX2                !
 ! D109  D(17,18,19,50)         57.7956         estimate D2E/DX2                !
 ! D110  D(47,18,19,20)        -57.6027         estimate D2E/DX2                !
 ! D111  D(47,18,19,49)         64.7308         estimate D2E/DX2                !
 ! D112  D(47,18,19,50)       -179.8767         estimate D2E/DX2                !
 ! D113  D(48,18,19,20)         57.7937         estimate D2E/DX2                !
 ! D114  D(48,18,19,49)       -179.8728         estimate D2E/DX2                !
 ! D115  D(48,18,19,50)        -64.4802         estimate D2E/DX2                !
 ! D116  D(18,19,20,21)       -179.6621         estimate D2E/DX2                !
 ! D117  D(18,19,20,51)         57.9941         estimate D2E/DX2                !
 ! D118  D(18,19,20,52)        -57.367          estimate D2E/DX2                !
 ! D119  D(49,19,20,21)         57.9997         estimate D2E/DX2                !
 ! D120  D(49,19,20,51)        -64.3441         estimate D2E/DX2                !
 ! D121  D(49,19,20,52)       -179.7051         estimate D2E/DX2                !
 ! D122  D(50,19,20,21)        -57.3936         estimate D2E/DX2                !
 ! D123  D(50,19,20,51)       -179.7374         estimate D2E/DX2                !
 ! D124  D(50,19,20,52)         64.9016         estimate D2E/DX2                !
 ! D125  D(19,20,21,22)       -179.9887         estimate D2E/DX2                !
 ! D126  D(19,20,21,53)        -57.658          estimate D2E/DX2                !
 ! D127  D(19,20,21,54)         57.7158         estimate D2E/DX2                !
 ! D128  D(51,20,21,22)        -57.6628         estimate D2E/DX2                !
 ! D129  D(51,20,21,53)         64.6679         estimate D2E/DX2                !
 ! D130  D(51,20,21,54)       -179.9582         estimate D2E/DX2                !
 ! D131  D(52,20,21,22)         57.7195         estimate D2E/DX2                !
 ! D132  D(52,20,21,53)       -179.9498         estimate D2E/DX2                !
 ! D133  D(52,20,21,54)        -64.576          estimate D2E/DX2                !
 ! D134  D(20,21,22,23)       -179.8699         estimate D2E/DX2                !
 ! D135  D(20,21,22,55)         57.8298         estimate D2E/DX2                !
 ! D136  D(20,21,22,56)        -57.5807         estimate D2E/DX2                !
 ! D137  D(53,21,22,23)         57.7958         estimate D2E/DX2                !
 ! D138  D(53,21,22,55)        -64.5045         estimate D2E/DX2                !
 ! D139  D(53,21,22,56)       -179.915          estimate D2E/DX2                !
 ! D140  D(54,21,22,23)        -57.573          estimate D2E/DX2                !
 ! D141  D(54,21,22,55)       -179.8733         estimate D2E/DX2                !
 ! D142  D(54,21,22,56)         64.7162         estimate D2E/DX2                !
 ! D143  D(21,22,23,24)        179.9968         estimate D2E/DX2                !
 ! D144  D(21,22,23,57)        -57.6656         estimate D2E/DX2                !
 ! D145  D(21,22,23,58)         57.6755         estimate D2E/DX2                !
 ! D146  D(55,22,23,24)        -57.6604         estimate D2E/DX2                !
 ! D147  D(55,22,23,57)         64.6772         estimate D2E/DX2                !
 ! D148  D(55,22,23,58)       -179.9817         estimate D2E/DX2                !
 ! D149  D(56,22,23,24)         57.662          estimate D2E/DX2                !
 ! D150  D(56,22,23,57)        179.9996         estimate D2E/DX2                !
 ! D151  D(56,22,23,58)        -64.6593         estimate D2E/DX2                !
 ! D152  D(22,23,24,59)         59.7228         estimate D2E/DX2                !
 ! D153  D(22,23,24,60)        -59.91           estimate D2E/DX2                !
 ! D154  D(22,23,24,61)        179.9124         estimate D2E/DX2                !
 ! D155  D(57,23,24,59)        -62.4283         estimate D2E/DX2                !
 ! D156  D(57,23,24,60)        177.9388         estimate D2E/DX2                !
 ! D157  D(57,23,24,61)         57.7613         estimate D2E/DX2                !
 ! D158  D(58,23,24,59)       -178.1313         estimate D2E/DX2                !
 ! D159  D(58,23,24,60)         62.2358         estimate D2E/DX2                !
 ! D160  D(58,23,24,61)        -57.9418         estimate D2E/DX2                !
 --------------------------------------------------------------------------------
 Trust Radius=3.00D-01 FncErr=1.00D-07 GrdErr=1.00D-06
 Number of steps in this run=    346 maximum allowed number of steps=    366.
 GradGradGradGradGradGradGradGradGradGradGradGradGradGradGradGradGradGrad

 Symmetry turned off by external request.
 Stoichiometry    C24H35NO
 Framework group  C1[X(C24H35NO)]
 Deg. of freedom   177
 Full point group                 C1      NOp   1
                          Input orientation:                          
 ---------------------------------------------------------------------
 Center     Atomic      Atomic             Coordinates (Angstroms)
 Number     Number       Type             X           Y           Z
 ---------------------------------------------------------------------
      1          6           0       -0.063267    0.018532   -0.042047
      2          6           0       -0.053668    0.183430    1.383017
      3          6           0        1.205487    0.374174    2.017625
      4          6           0        2.379105    0.397255    1.301592
      5          6           0        2.389461    0.221214   -0.126256
      6          6           0        1.154749    0.047380   -0.767223
      7          6           0       -1.323743   -0.167950   -0.685026
      8          6           0       -2.497822   -0.193953    0.037781
      9          6           0       -2.484817   -0.029404    1.452200
     10          6           0       -1.277849    0.155450    2.103000
     11          7           0        3.583031    0.220346   -0.820590
     12          6           0        4.823864    0.592314   -0.156562
     13          6           0       -3.780177   -0.106666    2.229268
     14          6           0       -4.507047    1.200807    2.467462
     15          6           0       -5.810338    1.079554    3.254379
     16          6           0       -6.510454    2.426073    3.462005
     17          6           0       -7.811176    2.318986    4.265010
     18          6           0       -8.517926    3.662615    4.471655
     19          6           0       -9.812137    3.559821    5.285872
     20          6           0      -10.519249    4.903643    5.490686
     21          6           0      -11.809317    4.803334    6.311742
     22          6           0      -12.516425    6.146956    6.516259
     23          6           0      -13.804928    6.047263    7.340026
     24          6           0      -14.503820    7.394323    7.538888
     25          6           0        3.561836    0.158082   -2.272239
     26          8           0       -4.209898   -1.178371    2.624897
     27          1           0        1.235813    0.508517    3.102094
     28          1           0        3.315297    0.550218    1.836113
     29          1           0        1.101665   -0.073869   -1.848439
     30          1           0       -1.249331    0.280865    3.189212
     31          1           0       -3.449841   -0.344592   -0.477134
     32          1           0       -1.348792   -0.295256   -1.770465
     33          1           0       -4.674654    1.662348    1.475152
     34          1           0       -3.794051    1.883856    2.967731
     35          1           0        4.591830    0.123038   -2.647015
     36          1           0        3.043680   -0.749858   -2.624414
     37          1           0        3.055425    1.031212   -2.728129
     38          1           0        5.648260    0.511935   -0.875363
     39          1           0        4.807876    1.628642    0.231689
     40          1           0        5.051994   -0.081654    0.685706
     41          1           0       -6.487128    0.383356    2.729104
     42          1           0       -5.599178    0.613519    4.232727
     43          1           0       -6.724816    2.883046    2.477561
     44          1           0       -5.821040    3.122273    3.975764
     45          1           0       -8.498797    1.619001    3.753815
     46          1           0       -7.593887    1.865330    5.250439
     47          1           0       -8.741585    4.112159    3.485666
     48          1           0       -7.826055    4.364562    4.974617
     49          1           0      -10.503731    2.856245    4.784778
     50          1           0       -9.587210    3.112247    6.272507
     51          1           0      -10.748370    5.348903    4.503948
     52          1           0       -9.825372    5.608410    5.987007
     53          1           0      -12.503114    4.097919    5.816172
     54          1           0      -11.579446    4.358708    7.298637
     55          1           0      -12.748790    6.591358    5.529615
     56          1           0      -11.822442    6.853422    7.010525
     57          1           0      -14.497991    5.341309    6.845791
     58          1           0      -13.572157    5.603514    8.325781
     59          1           0      -14.779508    7.848010    6.571264
     60          1           0      -13.848636    8.110574    8.064040
     61          1           0      -15.426223    7.288443    8.132839
 ---------------------------------------------------------------------
 Rotational constants (GHZ):      0.6976568      0.0314788      0.0309956
 Standard basis: CC-pVDZ (5D, 7F)
   539 basis functions,  1103 primitive gaussians,   565 cartesian basis functions
    97 alpha electrons       97 beta electrons
       nuclear repulsion energy      1988.4112881594 Hartrees.
 NAtoms=   61 NActive=   61 NUniq=   61 SFac= 1.00D+00 NAtFMM=   60 NAOKFM=T Big=T
 Integral buffers will be    131072 words long.
 Raffenetti 1 integral format.
 Two-electron integral symmetry is turned off.
 ------------------------------------------------------------------------------
 Polarizable Continuum Model (PCM)
 =================================
 Model                : PCM (using non-symmetric T matrix).
 Atomic radii         : UFF (Universal Force Field).
 Polarization charges : Total charges.
 Charge compensation  : None.
 Solution method      : On-the-fly selection.
 Cavity type          : Scaled VdW (van der Waals Surface) (Alpha=1.100).
 Cavity algorithm     : GePol (No added spheres)
                        Default sphere list used, NSphG=   61.
                        Lebedev-Laikov grids with approx.  5.0 points / Ang**2.
                        Smoothing algorithm: Karplus/York (Gamma=1.0000).
                        Polarization charges: spherical gaussians, with
                                              point-specific exponents (IZeta= 3).
                        Self-potential: point-specific (ISelfS= 7).
                        Self-field    : sphere-specific E.n sum rule (ISelfD= 2).
 1st derivatives      : Analytical E(r).r(x)/FMM algorithm (CHGder, D1EAlg=3).
                        Cavity 1st derivative terms included.
 Solvent              : Water, Eps=  78.355300 Eps(inf)=   1.777849
 ------------------------------------------------------------------------------
 One-electron integrals computed using PRISM.
 NBasis=   539 RedAO= T EigKep=  1.73D-04  NBF=   539
 NBsUse=   539 1.00D-06 EigRej= -1.00D+00 NBFU=   539
 Initial guess from the checkpoint file:  "L90tail.chk"
 B after Tr=     0.000000    0.000000    0.000000
         Rot=    1.000000    0.000000    0.000000    0.000000 Ang=   0.00 deg.
 Requested convergence on RMS density matrix=1.00D-08 within 128 cycles.
 Requested convergence on MAX density matrix=1.00D-06.
 Requested convergence on             energy=1.00D-06.
 No special actions if energy rises.
 Inv3:  Mode=1 IEnd=    54417243.
 Iteration    1 A*A^-1 deviation from unit magnitude is 8.88D-15 for   4256.
 Iteration    1 A*A^-1 deviation from orthogonality  is 5.77D-15 for   4249   2875.
 Iteration    1 A^-1*A deviation from unit magnitude is 8.66D-15 for   4256.
 Iteration    1 A^-1*A deviation from orthogonality  is 7.44D-11 for   3801   3796.
 Error on total polarization charges =  0.02067
 SCF Done:  E(RCAM-B3LYP) =  -1065.06169487     A.U. after   11 cycles
            NFock= 11  Conv=0.52D-08     -V/T= 2.0076
 DoSCS=F DFT=T ScalE2(SS,OS)=  1.000000  1.000000
 ExpMin= 1.22D-01 ExpMax= 1.17D+04 ExpMxC= 4.01D+02 IAcc=3 IRadAn=         5 AccDes= 0.00D+00
 HarFok:  IExCor=  205 AccDes= 0.00D+00 IRadAn=         5 IDoV=-2 UseB2=F ITyADJ=14
 ICtDFT= 12500011 ScaDFX=  1.000000  1.000000  1.000000  1.000000
 Range of M.O.s used for correlation:    27   539
 NBasis=   539 NAE=    97 NBE=    97 NFC=    26 NFV=     0
 NROrb=    513 NOA=    71 NOB=    71 NVA=   442 NVB=   442

 **** Warning!!: The largest alpha MO coefficient is  0.13715169D+02

 Would need an additional         57172800000 words for in-memory AO integral storage.
 NEqPCM:  Using equilibrium solvation (IEInf=0, Eps=  78.3553, EpsInf=   1.7778)
    12 initial guesses have been made.
 Convergence on wavefunction:    0.000001000000000
 Iteration     1 Dimension    12 NMult     0 NNew     12
 CISAX will form    12 AO SS matrices at one time.
 Iteration     2 Dimension    18 NMult    12 NNew      6
 Iteration     3 Dimension    24 NMult    18 NNew      6
 Iteration     4 Dimension    30 NMult    24 NNew      6
 New state      2 was old state      3
 New state      3 was old state      2
 Iteration     5 Dimension    36 NMult    30 NNew      6
 Iteration     6 Dimension    42 NMult    36 NNew      6
 Iteration     7 Dimension    48 NMult    42 NNew      6
 Iteration     8 Dimension    54 NMult    48 NNew      6
 Iteration     9 Dimension    60 NMult    54 NNew      6
 Iteration    10 Dimension    66 NMult    60 NNew      6
 Iteration    11 Dimension    70 NMult    66 NNew      4
 Iteration    12 Dimension    74 NMult    70 NNew      4
 Iteration    13 Dimension    76 NMult    74 NNew      2
 ***********************************************************************
 Excited states from <AA,BB:AA,BB> singles matrix:
 ***********************************************************************
 
 Ground to excited state transition densities written to RWF  633
 Ground to excited state transition electric dipole moments (Au):
       state          X           Y           Z        Dip. S.      Osc.
         1         1.2828      0.2030      0.6965      2.1719      0.2015
         2         0.1046      0.0056     -0.0173      0.0113      0.0012
         3        -1.4823     -0.1096      0.2761      2.2855      0.2520
 Ground to excited state transition velocity dipole moments (Au):
       state          X           Y           Z        Dip. S.      Osc.
         1        -0.1735     -0.0292     -0.1055      0.0421      0.2016
         2        -0.0159     -0.0012      0.0048      0.0003      0.0011
         3         0.2403      0.0181     -0.0433      0.0600      0.2417
 Ground to excited state transition magnetic dipole moments (Au):
       state          X           Y           Z
         1         0.0155     -0.6732      0.0598
         2        -0.4410     -0.9331      0.3890
         3        -0.0304      0.1656      0.0822
 Ground to excited state transition velocity quadrupole moments (Au):
       state          XX          YY          ZZ          XY          XZ          YZ
         1        -0.4938     -0.0127     -0.2194     -0.1322     -0.2127     -0.0348
         2         0.1413     -0.0066     -0.0714     -0.0138      0.0413     -0.0469
         3         0.4078     -0.0092      0.1274      0.1617     -0.0735     -0.0485
 <0|del|b> * <b|rxdel|0> + <0|del|b> * <b|delr+rdel|0>
 Rotatory Strengths (R) in cgs (10**-40 erg-esu-cm/Gauss)
       state          XX          YY          ZZ    R(velocity)    E-M Angle
         1        53.5542    -42.9320     43.5593     18.0605       85.59
         2         6.5617     21.1496     16.0426     14.5846       56.89
         3       -13.3475    -33.1916     12.8932    -11.2153       99.88
 1/2[<0|r|b>*<b|rxdel|0> + (<0|rxdel|b>*<b|r|0>)*]
 Rotatory Strengths (R) in cgs (10**-40 erg-esu-cm/Gauss)
       state          XX          YY          ZZ     R(length)
         1       -14.0226     96.6392    -29.4615     17.7183
         2        32.6299      3.7206      4.7621     13.7042
         3       -31.8479     12.8330    -16.0505    -11.6885
  1/2[<0|del|b>*<b|r|0> + (<0|r|b>*<b|del|0>)*] (Au)
       state          X           Y           Z        Dip. S.   Osc.(frdel)
         1        -0.2226     -0.0059     -0.0735      0.3020      0.2013
         2        -0.0017      0.0000     -0.0001      0.0018      0.0012
         3        -0.3563     -0.0020     -0.0120      0.3702      0.2468

 Excitation energies and oscillator strengths:
 
 Excited state symmetry could not be determined.
 Excited State   1:      Singlet-?Sym    3.7873 eV  327.37 nm  f=0.2015  <S**2>=0.000
      96 -> 99         0.10563
      97 -> 98         0.68213
 This state for optimization and/or second-order correction.
 Total Energy, E(TD-HF/TD-KS) =  -1064.92251535    
 Copying the excited state density for this state as the 1-particle RhoCI density.
 
 Excited state symmetry could not be determined.
 Excited State   2:      Singlet-?Sym    4.4132 eV  280.94 nm  f=0.0012  <S**2>=0.000
      95 -> 99         0.31944
      95 ->100        -0.58504
      97 -> 99        -0.11159
      97 ->100         0.11167
 
 Excited state symmetry could not be determined.
 Excited State   3:      Singlet-?Sym    4.5010 eV  275.46 nm  f=0.2520  <S**2>=0.000
      96 -> 98        -0.35395
      97 -> 98        -0.12214
      97 -> 99         0.51341
      97 ->100         0.26510
 SavETr:  write IOETrn=   770 NScale= 10 NData=  16 NLR=1 NState=    3 LETran=      64.
          IDoAtm=11111111111111111111111111111111111111111111111111
          IDoAtm=11111111111
 NEqPCM:  Using equilibrium solvation (IEInf=0, Eps=  78.3553, EpsInf=   1.7778)
          Differentiating once with respect to electric field.
                with respect to dipole field.
          Differentiating once with respect to nuclear coordinates.
          There are     1 degrees of freedom in the 1st order CPHF.  IDoFFX=0 NUNeed=     1.
 LinEq1:  Iter=  0 NonCon=     1 RMS=2.69D-03 Max=1.51D-01 NDo=     1
 AX will form     1 AO Fock derivatives at one time.
 LinEq1:  Iter=  1 NonCon=     1 RMS=9.03D-04 Max=6.25D-02 NDo=     1
 LinEq1:  Iter=  2 NonCon=     1 RMS=4.69D-04 Max=3.72D-02 NDo=     1
 LinEq1:  Iter=  3 NonCon=     1 RMS=1.99D-04 Max=1.35D-02 NDo=     1
 LinEq1:  Iter=  4 NonCon=     1 RMS=9.30D-05 Max=5.90D-03 NDo=     1
 LinEq1:  Iter=  5 NonCon=     1 RMS=4.08D-05 Max=2.33D-03 NDo=     1
 LinEq1:  Iter=  6 NonCon=     1 RMS=1.67D-05 Max=7.13D-04 NDo=     1
 LinEq1:  Iter=  7 NonCon=     1 RMS=9.49D-06 Max=5.93D-04 NDo=     1
 LinEq1:  Iter=  8 NonCon=     1 RMS=4.26D-06 Max=2.60D-04 NDo=     1
 LinEq1:  Iter=  9 NonCon=     1 RMS=2.98D-06 Max=1.54D-04 NDo=     1
 LinEq1:  Iter= 10 NonCon=     1 RMS=1.47D-06 Max=7.16D-05 NDo=     1
 LinEq1:  Iter= 11 NonCon=     1 RMS=8.16D-07 Max=5.05D-05 NDo=     1
 LinEq1:  Iter= 12 NonCon=     1 RMS=2.93D-07 Max=2.01D-05 NDo=     1
 LinEq1:  Iter= 13 NonCon=     1 RMS=1.34D-07 Max=1.04D-05 NDo=     1
 LinEq1:  Iter= 14 NonCon=     1 RMS=5.46D-08 Max=2.97D-06 NDo=     1
 LinEq1:  Iter= 15 NonCon=     1 RMS=3.05D-08 Max=2.57D-06 NDo=     1
 LinEq1:  Iter= 16 NonCon=     1 RMS=1.05D-08 Max=3.95D-07 NDo=     1
 LinEq1:  Iter= 17 NonCon=     1 RMS=7.05D-09 Max=4.45D-07 NDo=     1
 LinEq1:  Iter= 18 NonCon=     1 RMS=2.19D-09 Max=9.26D-08 NDo=     1
 LinEq1:  Iter= 19 NonCon=     1 RMS=7.97D-10 Max=2.46D-08 NDo=     1
 LinEq1:  Iter= 20 NonCon=     1 RMS=3.55D-10 Max=1.12D-08 NDo=     1
 LinEq1:  Iter= 21 NonCon=     1 RMS=1.20D-10 Max=6.47D-09 NDo=     1
 LinEq1:  Iter= 22 NonCon=     1 RMS=5.14D-11 Max=3.24D-09 NDo=     1
 LinEq1:  Iter= 23 NonCon=     1 RMS=2.22D-11 Max=1.91D-09 NDo=     1
 LinEq1:  Iter= 24 NonCon=     0 RMS=8.91D-12 Max=6.43D-10 NDo=     1
 Linear equations converged to 1.000D-10 1.000D-09 after    24 iterations.
 End of Minotr F.D. properties file   721 does not exist.
 End of Minotr F.D. properties file   722 does not exist.
 End of Minotr F.D. properties file   788 does not exist.

 **********************************************************************

            Population analysis using the SCF density.

 **********************************************************************

 Alpha  occ. eigenvalues --  -19.21395 -14.42181 -10.35781 -10.30888 -10.28903
 Alpha  occ. eigenvalues --  -10.28793 -10.27565 -10.27277 -10.27227 -10.27190
 Alpha  occ. eigenvalues --  -10.26996 -10.26947 -10.26659 -10.26577 -10.26573
 Alpha  occ. eigenvalues --  -10.25502 -10.25335 -10.25176 -10.25072 -10.24948
 Alpha  occ. eigenvalues --  -10.24874 -10.24839 -10.24825 -10.24814 -10.24800
 Alpha  occ. eigenvalues --  -10.24653  -1.12864  -1.03289  -0.95818  -0.90654
 Alpha  occ. eigenvalues --   -0.89476  -0.88368  -0.86477  -0.85779  -0.83930
 Alpha  occ. eigenvalues --   -0.82834  -0.81403  -0.79798  -0.79292  -0.76270
 Alpha  occ. eigenvalues --   -0.74378  -0.71339  -0.69979  -0.68282  -0.67155
 Alpha  occ. eigenvalues --   -0.66192  -0.64953  -0.64315  -0.64125  -0.61557
 Alpha  occ. eigenvalues --   -0.59433  -0.58139  -0.56611  -0.55415  -0.54458
 Alpha  occ. eigenvalues --   -0.53751  -0.53309  -0.53205  -0.52343  -0.51655
 Alpha  occ. eigenvalues --   -0.51504  -0.50405  -0.49741  -0.49445  -0.48786
 Alpha  occ. eigenvalues --   -0.48408  -0.47764  -0.47124  -0.46744  -0.46650
 Alpha  occ. eigenvalues --   -0.46436  -0.46061  -0.45127  -0.44755  -0.44239
 Alpha  occ. eigenvalues --   -0.43892  -0.43002  -0.42285  -0.42047  -0.41472
 Alpha  occ. eigenvalues --   -0.40677  -0.40559  -0.39654  -0.39442  -0.38958
 Alpha  occ. eigenvalues --   -0.38920  -0.38481  -0.37975  -0.37945  -0.37567
 Alpha  occ. eigenvalues --   -0.37505  -0.35623  -0.35415  -0.32811  -0.31597
 Alpha  occ. eigenvalues --   -0.28299  -0.23842
 Alpha virt. eigenvalues --   -0.00165   0.03170   0.03413   0.07319   0.10180
 Alpha virt. eigenvalues --    0.10462   0.10687   0.11307   0.12093   0.12378
 Alpha virt. eigenvalues --    0.12567   0.12584   0.13282   0.13569   0.14124
 Alpha virt. eigenvalues --    0.14280   0.14745   0.14909   0.15215   0.15950
 Alpha virt. eigenvalues --    0.16758   0.17276   0.17911   0.18735   0.19004
 Alpha virt. eigenvalues --    0.19151   0.19456   0.20151   0.20498   0.20614
 Alpha virt. eigenvalues --    0.20645   0.20779   0.21013   0.21887   0.21998
 Alpha virt. eigenvalues --    0.22544   0.22804   0.22972   0.23345   0.24488
 Alpha virt. eigenvalues --    0.24875   0.25243   0.25363   0.25998   0.26641
 Alpha virt. eigenvalues --    0.27611   0.28072   0.28599   0.29269   0.29471
 Alpha virt. eigenvalues --    0.30529   0.30699   0.31711   0.33181   0.33667
 Alpha virt. eigenvalues --    0.34409   0.35747   0.36572   0.37511   0.38052
 Alpha virt. eigenvalues --    0.39221   0.40094   0.41335   0.42695   0.43317
 Alpha virt. eigenvalues --    0.44606   0.45724   0.46707   0.46832   0.47281
 Alpha virt. eigenvalues --    0.47361   0.48286   0.48890   0.49419   0.49535
 Alpha virt. eigenvalues --    0.49615   0.50199   0.50887   0.51124   0.52031
 Alpha virt. eigenvalues --    0.52447   0.53242   0.53646   0.54081   0.54267
 Alpha virt. eigenvalues --    0.54495   0.55299   0.56001   0.56730   0.57178
 Alpha virt. eigenvalues --    0.57638   0.58113   0.58406   0.58873   0.59266
 Alpha virt. eigenvalues --    0.59433   0.60189   0.61262   0.62250   0.62678
 Alpha virt. eigenvalues --    0.63014   0.63290   0.63831   0.65437   0.66698
 Alpha virt. eigenvalues --    0.67054   0.67567   0.68122   0.68297   0.68622
 Alpha virt. eigenvalues --    0.69199   0.69299   0.69356   0.70002   0.70370
 Alpha virt. eigenvalues --    0.70513   0.70644   0.70941   0.71169   0.71192
 Alpha virt. eigenvalues --    0.71370   0.71580   0.71644   0.71787   0.72281
 Alpha virt. eigenvalues --    0.72719   0.72780   0.72885   0.73011   0.73185
 Alpha virt. eigenvalues --    0.73546   0.73920   0.73994   0.74259   0.74661
 Alpha virt. eigenvalues --    0.74742   0.75094   0.75276   0.75696   0.76092
 Alpha virt. eigenvalues --    0.76521   0.76631   0.77078   0.77344   0.77403
 Alpha virt. eigenvalues --    0.77617   0.78032   0.78271   0.78546   0.78594
 Alpha virt. eigenvalues --    0.79668   0.79830   0.80401   0.80698   0.81052
 Alpha virt. eigenvalues --    0.82210   0.82475   0.83937   0.84616   0.85509
 Alpha virt. eigenvalues --    0.86219   0.87748   0.88327   0.89327   0.90267
 Alpha virt. eigenvalues --    0.91685   0.92055   0.93260   0.93817   0.94977
 Alpha virt. eigenvalues --    0.95950   0.96592   0.96650   0.97314   0.97734
 Alpha virt. eigenvalues --    0.99069   0.99560   1.00170   1.01750   1.03639
 Alpha virt. eigenvalues --    1.04040   1.04810   1.05071   1.06745   1.07370
 Alpha virt. eigenvalues --    1.08407   1.09287   1.10941   1.11988   1.13297
 Alpha virt. eigenvalues --    1.14138   1.14259   1.15275   1.15472   1.16655
 Alpha virt. eigenvalues --    1.18430   1.19244   1.20265   1.20606   1.22541
 Alpha virt. eigenvalues --    1.24397   1.25454   1.27186   1.27543   1.27865
 Alpha virt. eigenvalues --    1.27950   1.28708   1.28750   1.28785   1.29536
 Alpha virt. eigenvalues --    1.29767   1.29878   1.30447   1.30908   1.30944
 Alpha virt. eigenvalues --    1.31537   1.31967   1.33887   1.35201   1.35820
 Alpha virt. eigenvalues --    1.38728   1.39256   1.39473   1.40558   1.43541
 Alpha virt. eigenvalues --    1.43822   1.44648   1.46144   1.46470   1.46560
 Alpha virt. eigenvalues --    1.46997   1.48146   1.48652   1.49972   1.50033
 Alpha virt. eigenvalues --    1.50612   1.50867   1.51912   1.52400   1.52859
 Alpha virt. eigenvalues --    1.53351   1.54446   1.54745   1.55822   1.56260
 Alpha virt. eigenvalues --    1.57245   1.57780   1.59820   1.60252   1.61839
 Alpha virt. eigenvalues --    1.62747   1.63823   1.64090   1.66520   1.66832
 Alpha virt. eigenvalues --    1.67205   1.67660   1.68081   1.68611   1.68851
 Alpha virt. eigenvalues --    1.69159   1.69479   1.69849   1.70028   1.70256
 Alpha virt. eigenvalues --    1.70427   1.70930   1.71370   1.71644   1.71865
 Alpha virt. eigenvalues --    1.72271   1.72469   1.72825   1.72995   1.73332
 Alpha virt. eigenvalues --    1.73660   1.73916   1.74249   1.74827   1.75109
 Alpha virt. eigenvalues --    1.75230   1.76081   1.76365   1.76885   1.77429
 Alpha virt. eigenvalues --    1.77651   1.77745   1.77941   1.78057   1.78346
 Alpha virt. eigenvalues --    1.78649   1.78900   1.79145   1.79429   1.80122
 Alpha virt. eigenvalues --    1.80242   1.80356   1.80577   1.81394   1.81581
 Alpha virt. eigenvalues --    1.81873   1.82525   1.82923   1.83170   1.83680
 Alpha virt. eigenvalues --    1.84178   1.84808   1.85127   1.86022   1.86077
 Alpha virt. eigenvalues --    1.86813   1.86997   1.87578   1.87707   1.88297
 Alpha virt. eigenvalues --    1.88670   1.89129   1.89468   1.90506   1.90721
 Alpha virt. eigenvalues --    1.90942   1.92418   1.92619   1.92828   1.95088
 Alpha virt. eigenvalues --    1.95800   1.97574   1.98063   1.98962   1.99713
 Alpha virt. eigenvalues --    2.00339   2.01387   2.01750   2.02628   2.03487
 Alpha virt. eigenvalues --    2.04296   2.04829   2.05133   2.05782   2.07004
 Alpha virt. eigenvalues --    2.07521   2.08225   2.08533   2.09643   2.10751
 Alpha virt. eigenvalues --    2.11151   2.11996   2.13213   2.13529   2.14038
 Alpha virt. eigenvalues --    2.14408   2.15278   2.15830   2.17115   2.18735
 Alpha virt. eigenvalues --    2.19397   2.19867   2.21269   2.22287   2.23720
 Alpha virt. eigenvalues --    2.25491   2.26586   2.26961   2.27403   2.28327
 Alpha virt. eigenvalues --    2.28858   2.29256   2.30080   2.31367   2.31690
 Alpha virt. eigenvalues --    2.32619   2.33733   2.34024   2.34488   2.35054
 Alpha virt. eigenvalues --    2.35507   2.35910   2.36445   2.37256   2.38856
 Alpha virt. eigenvalues --    2.39589   2.39927   2.40170   2.40965   2.41068
 Alpha virt. eigenvalues --    2.41584   2.42176   2.43352   2.43779   2.45045
 Alpha virt. eigenvalues --    2.45188   2.45809   2.47023   2.47901   2.48909
 Alpha virt. eigenvalues --    2.50064   2.50462   2.51054   2.51854   2.51962
 Alpha virt. eigenvalues --    2.52609   2.53342   2.54791   2.55556   2.55709
 Alpha virt. eigenvalues --    2.56347   2.58103   2.60197   2.60949   2.61477
 Alpha virt. eigenvalues --    2.63757   2.64335   2.64594   2.65189   2.66414
 Alpha virt. eigenvalues --    2.67135   2.68439   2.70220   2.71465   2.72023
 Alpha virt. eigenvalues --    2.73017   2.73533   2.75045   2.76865   2.78326
 Alpha virt. eigenvalues --    2.79619   2.80251   2.80562   2.83951   2.84877
 Alpha virt. eigenvalues --    2.85812   2.87562   2.88484   2.92512   2.94403
 Alpha virt. eigenvalues --    3.00137   3.12763   3.18230   3.36498   3.45033
 Alpha virt. eigenvalues --    3.51331   3.58849
          Condensed to atoms (all electrons):
 Mulliken charges:
               1
     1  C    0.012909
     2  C   -0.004874
     3  C    0.014569
     4  C   -0.022863
     5  C    0.172133
     6  C   -0.064451
     7  C    0.002295
     8  C    0.032860
     9  C   -0.023697
    10  C    0.025177
    11  N   -0.320382
    12  C    0.064269
    13  C    0.062139
    14  C   -0.019680
    15  C   -0.007894
    16  C   -0.015926
    17  C   -0.014760
    18  C   -0.013624
    19  C   -0.014321
    20  C   -0.015082
    21  C   -0.015856
    22  C   -0.021574
    23  C   -0.046939
    24  C   -0.022005
    25  C    0.070241
    26  O   -0.231753
    27  H   -0.022137
    28  H   -0.010919
    29  H   -0.035047
    30  H   -0.030982
    31  H   -0.021137
    32  H   -0.022551
    33  H    0.050086
    34  H    0.049355
    35  H    0.042349
    36  H    0.043183
    37  H    0.031585
    38  H    0.042898
    39  H    0.034799
    40  H    0.046288
    41  H    0.015122
    42  H    0.015124
    43  H    0.010974
    44  H    0.010914
    45  H    0.008403
    46  H    0.008391
    47  H    0.007539
    48  H    0.007452
    49  H    0.007053
    50  H    0.007054
    51  H    0.006921
    52  H    0.006863
    53  H    0.006680
    54  H    0.006689
    55  H    0.006651
    56  H    0.006608
    57  H    0.010237
    58  H    0.010245
    59  H    0.021897
    60  H    0.021913
    61  H    0.018588
 Sum of Mulliken charges =   0.00000
 Mulliken charges with hydrogens summed into heavy atoms:
               1
     1  C    0.012909
     2  C   -0.004874
     3  C   -0.007568
     4  C   -0.033782
     5  C    0.172133
     6  C   -0.099498
     7  C   -0.020256
     8  C    0.011723
     9  C   -0.023697
    10  C   -0.005805
    11  N   -0.320382
    12  C    0.188253
    13  C    0.062139
    14  C    0.079762
    15  C    0.022352
    16  C    0.005963
    17  C    0.002033
    18  C    0.001367
    19  C   -0.000214
    20  C   -0.001298
    21  C   -0.002487
    22  C   -0.008315
    23  C   -0.026458
    24  C    0.040393
    25  C    0.187359
    26  O   -0.231753
 Electronic spatial extent (au):  <R**2>=          53514.0220
 Charge=              0.0000 electrons
 Dipole moment (field-independent basis, Debye):
    X=              4.7319    Y=              3.2962    Z=             -2.2580  Tot=              6.1931
 Quadrupole moment (field-independent basis, Debye-Ang):
   XX=           -145.7471   YY=           -169.5314   ZZ=           -154.2246
   XY=             -8.9619   XZ=              3.6978   YZ=              9.1960
 Traceless Quadrupole moment (field-independent basis, Debye-Ang):
   XX=             10.7540   YY=            -13.0304   ZZ=              2.2764
   XY=             -8.9619   XZ=              3.6978   YZ=              9.1960
 Octapole moment (field-independent basis, Debye-Ang**2):
  XXX=           2186.5979  YYY=           -928.8985  ZZZ=          -1265.7372  XYY=            717.7806
  XXY=           -255.2610  XXZ=           -486.7924  XZZ=            721.7179  YZZ=           -277.4513
  YYZ=           -440.6504  XYZ=            -26.8502
 Hexadecapole moment (field-independent basis, Debye-Ang**3):
 XXXX=         -50848.0832 YYYY=          -9585.0071 ZZZZ=         -14406.8326 XXXY=          10007.1849
 XXXZ=          13281.4024 YYYX=          10133.7487 YYYZ=          -5406.8000 ZZZX=          12894.6661
 ZZZY=          -5181.1843 XXYY=         -10455.1021 XXZZ=         -11074.5158 YYZZ=          -4049.8109
 XXYZ=          -1797.4505 YYXZ=           4483.7521 ZZXY=           3238.4109
 N-N= 1.988411288159D+03 E-N=-6.446843437171D+03  KE= 1.057007052664D+03
 D1PCM: PCM CHGder 1st derivatives, ID1Alg=3 FixD1E=F DoIter=F DoCFld=F I1PDM=6.
 Calling FoFJK, ICntrl=  10005127 FMM=T ISym2X=0 I1Cent= 0 IOpClX= 0 NMat=1 NMatS=1 NMatT=0.
 -------------------------------------------------------------------
 Center     Atomic                   Forces (Hartrees/Bohr)
 Number     Number              X              Y              Z
 -------------------------------------------------------------------
      1        6          -0.007767845   -0.002139041   -0.016949440
      2        6           0.005559266    0.002527406    0.013916290
      3        6          -0.018911154   -0.000745544    0.005209639
      4        6           0.030113083    0.000481611   -0.017792587
      5        6           0.028926797    0.003914367    0.028091473
      6        6          -0.023568604   -0.004781475   -0.009619599
      7        6           0.025054078    0.001699477   -0.006886814
      8        6          -0.025901922    0.000124169    0.023589449
      9        6          -0.013971945   -0.006054252   -0.026350790
     10        6           0.016485263    0.002591244    0.008488869
     11        7          -0.021823796    0.008300211    0.007962297
     12        6           0.005071476   -0.002183847   -0.000985660
     13        6          -0.001738004   -0.002834494   -0.000109326
     14        6           0.000013746   -0.000656734    0.000338807
     15        6           0.000724242    0.000942135   -0.000340988
     16        6          -0.000526955   -0.001251765    0.000523565
     17        6           0.000559403    0.001254964   -0.000541738
     18        6          -0.000526992   -0.001252564    0.000547810
     19        6           0.000537325    0.001255826   -0.000546776
     20        6          -0.000518809   -0.001257685    0.000552773
     21        6           0.000545326    0.001251953   -0.000562414
     22        6          -0.000488211   -0.001310417    0.000541002
     23        6           0.000900681    0.001162356   -0.000786310
     24        6           0.001133732   -0.001500798   -0.000452641
     25        6           0.001469542   -0.002400150   -0.007814065
     26        8           0.003632076    0.007995429   -0.002909378
     27        1          -0.000589494   -0.000189570   -0.001043316
     28        1          -0.000407603   -0.000455468   -0.001526699
     29        1          -0.000334993   -0.000131678    0.000436001
     30        1           0.000454886   -0.000229989   -0.001159065
     31        1           0.000482881    0.000087166    0.001183348
     32        1           0.000626950    0.000222416    0.000619106
     33        1           0.000021991   -0.001059341    0.001087169
     34        1          -0.000693334   -0.001005208   -0.000193358
     35        1          -0.001180933    0.000028320    0.001178690
     36        1           0.001529495    0.002116702    0.002339348
     37        1           0.002217465   -0.001758215    0.003745548
     38        1          -0.001732505   -0.000167226    0.000123586
     39        1          -0.003774268   -0.002740090   -0.001500942
     40        1          -0.003136923    0.000512831   -0.001565811
     41        1           0.000636964    0.000717177    0.000374621
     42        1          -0.000159656    0.000515868   -0.000838931
     43        1           0.000104702   -0.000568484    0.000909043
     44        1          -0.000656556   -0.000779682   -0.000358313
     45        1           0.000661593    0.000776395    0.000361973
     46        1          -0.000108778    0.000562312   -0.000912282
     47        1           0.000108685   -0.000554161    0.000918699
     48        1          -0.000664517   -0.000779165   -0.000354091
     49        1           0.000667299    0.000780547    0.000351686
     50        1          -0.000113196    0.000555948   -0.000917435
     51        1           0.000115439   -0.000552341    0.000920001
     52        1          -0.000666531   -0.000782062   -0.000348021
     53        1           0.000669474    0.000781347    0.000345899
     54        1          -0.000116218    0.000552193   -0.000920095
     55        1           0.000123427   -0.000554850    0.000927192
     56        1          -0.000671493   -0.000785053   -0.000349927
     57        1           0.000781082    0.000779666    0.000343214
     58        1          -0.000064876    0.000523974   -0.001008968
     59        1           0.000372791   -0.000614051    0.000793559
     60        1          -0.000425047   -0.000835780   -0.000505019
     61        1           0.000939999   -0.000102833   -0.000569860
 -------------------------------------------------------------------
 Cartesian Forces:  Max     0.030113083 RMS     0.006867012

 GradGradGradGradGradGradGradGradGradGradGradGradGradGradGradGradGradGrad
 Berny optimization.
 FormGI is forming the generalized inverse of G from B-inverse, IUseBI=4.
 Internal  Forces:  Max     0.022263466 RMS     0.003493985
 Search for a local minimum.
 Step number   1 out of a maximum of  346
 All quantities printed in internal units (Hartrees-Bohrs-Radians)
 Mixed Optimization -- RFO/linear search
 Second derivative matrix not updated -- first step.
 ITU=  0
     Eigenvalues ---    0.00335   0.00336   0.00336   0.00338   0.00339
     Eigenvalues ---    0.00340   0.00342   0.00345   0.00362   0.00405
     Eigenvalues ---    0.00570   0.00587   0.00955   0.00989   0.01316
     Eigenvalues ---    0.01407   0.01713   0.01735   0.01768   0.01817
     Eigenvalues ---    0.01867   0.01933   0.01945   0.01957   0.01989
     Eigenvalues ---    0.02003   0.02058   0.02065   0.02112   0.02158
     Eigenvalues ---    0.02181   0.03387   0.03387   0.03388   0.03389
     Eigenvalues ---    0.03391   0.03399   0.03419   0.03430   0.03483
     Eigenvalues ---    0.03759   0.04775   0.04776   0.04776   0.04776
     Eigenvalues ---    0.04776   0.04779   0.04784   0.04791   0.04813
     Eigenvalues ---    0.05155   0.05433   0.05485   0.07101   0.07190
     Eigenvalues ---    0.07534   0.07542   0.08422   0.08469   0.08476
     Eigenvalues ---    0.08509   0.08519   0.08524   0.08528   0.08528
     Eigenvalues ---    0.08529   0.09952   0.12266   0.12304   0.12310
     Eigenvalues ---    0.12334   0.12342   0.12345   0.12347   0.12347
     Eigenvalues ---    0.12348   0.13140   0.16000   0.16000   0.16000
     Eigenvalues ---    0.16000   0.16000   0.16000   0.16000   0.16000
     Eigenvalues ---    0.16000   0.16000   0.16000   0.16000   0.16000
     Eigenvalues ---    0.16000   0.16000   0.21878   0.21885   0.21898
     Eigenvalues ---    0.21899   0.21904   0.21905   0.21905   0.21905
     Eigenvalues ---    0.21905   0.21905   0.22255   0.22557   0.23488
     Eigenvalues ---    0.23520   0.24250   0.24468   0.24477   0.24775
     Eigenvalues ---    0.24982   0.24998   0.25000   0.25000   0.29187
     Eigenvalues ---    0.29195   0.29196   0.29206   0.29216   0.29224
     Eigenvalues ---    0.29236   0.29259   0.29373   0.29678   0.30875
     Eigenvalues ---    0.31097   0.32862   0.32903   0.32932   0.32941
     Eigenvalues ---    0.32943   0.32944   0.32963   0.32966   0.32966
     Eigenvalues ---    0.32970   0.32970   0.32971   0.32972   0.32976
     Eigenvalues ---    0.32984   0.32986   0.32993   0.32995   0.33040
     Eigenvalues ---    0.33048   0.33237   0.33252   0.33277   0.33281
     Eigenvalues ---    0.33340   0.33398   0.33441   0.34049   0.34059
     Eigenvalues ---    0.34377   0.34448   0.34449   0.34493   0.34895
     Eigenvalues ---    0.34947   0.36218   0.37512   0.37837   0.39247
     Eigenvalues ---    0.39424   0.39979   0.41006   0.41943   0.42180
     Eigenvalues ---    0.44517   0.47037   0.48436   0.48874   0.48950
     Eigenvalues ---    0.951421000.000001000.000001000.000001000.00000
     Eigenvalues --- 1000.000001000.000001000.000001000.000001000.00000
     Eigenvalues --- 1000.000001000.000001000.000001000.000001000.00000
     Eigenvalues --- 1000.000001000.000001000.000001000.000001000.00000
     Eigenvalues --- 1000.000001000.000001000.000001000.000001000.00000
     Eigenvalues --- 1000.000001000.000001000.000001000.000001000.00000
     Eigenvalues --- 1000.000001000.000001000.000001000.000001000.00000
     Eigenvalues --- 1000.000001000.000001000.000001000.000001000.00000
     Eigenvalues --- 1000.000001000.000001000.000001000.000001000.00000
     Eigenvalues --- 1000.000001000.000001000.000001000.000001000.00000
     Eigenvalues --- 1000.000001000.000001000.000001000.000001000.00000
     Eigenvalues --- 1000.000001000.000001000.000001000.000001000.00000
     Eigenvalues --- 1000.000001000.000001000.000001000.000001000.00000
     Eigenvalues --- 1000.000001000.000001000.000001000.000001000.00000
     Eigenvalues --- 1000.000001000.000001000.000001000.000001000.00000
     Eigenvalues --- 1000.000001000.000001000.000001000.000001000.00000
     Eigenvalues --- 1000.000001000.000001000.000001000.000001000.00000
     Eigenvalues --- 1000.000001000.000001000.000001000.000001000.00000
     Eigenvalues --- 1000.000001000.000001000.000001000.000001000.00000
     Eigenvalues --- 1000.000001000.000001000.000001000.000001000.00000
     Eigenvalues --- 1000.000001000.000001000.000001000.000001000.00000
     Eigenvalues --- 1000.000001000.000001000.000001000.000001000.00000
     Eigenvalues --- 1000.000001000.000001000.000001000.000001000.00000
     Eigenvalues --- 1000.000001000.000001000.000001000.000001000.00000
     Eigenvalues --- 1000.000001000.000001000.000001000.000001000.00000
     Eigenvalues --- 1000.000001000.000001000.000001000.000001000.00000
     Eigenvalues --- 1000.000001000.000001000.000001000.000001000.00000
     Eigenvalues --- 1000.000001000.000001000.000001000.000001000.00000
     Eigenvalues --- 1000.000001000.000001000.000001000.000001000.00000
     Eigenvalues --- 1000.000001000.000001000.000001000.000001000.00000
     Eigenvalues --- 1000.000001000.000001000.000001000.000001000.00000
     Eigenvalues --- 1000.000001000.000001000.000001000.000001000.00000
     Eigenvalues --- 1000.00000
 RFO step:  Lambda=-1.09948290D-02 EMin= 3.35118511D-03
 Linear search not attempted -- first point.
 Iteration  1 RMS(Cart)=  0.04448644 RMS(Int)=  0.00024928
 Iteration  2 RMS(Cart)=  0.00058725 RMS(Int)=  0.00009274
 Iteration  3 RMS(Cart)=  0.00000015 RMS(Int)=  0.00009274
 Iteration  1 RMS(Cart)=  0.00002119 RMS(Int)=  0.00000271
 Iteration  2 RMS(Cart)=  0.00001223 RMS(Int)=  0.00000302
 Iteration  3 RMS(Cart)=  0.00000706 RMS(Int)=  0.00000344
 Iteration  4 RMS(Cart)=  0.00000408 RMS(Int)=  0.00000373
 Iteration  5 RMS(Cart)=  0.00000235 RMS(Int)=  0.00000391
 Iteration  6 RMS(Cart)=  0.00000136 RMS(Int)=  0.00000402
 Iteration  7 RMS(Cart)=  0.00000078 RMS(Int)=  0.00000408
 Variable       Old X    -DE/DX   Delta X   Delta X   Delta X     New X
                                 (Linear)    (Quad)   (Total)
    R1        2.71101   0.00910   0.00000   0.02047   0.02040   2.73141
    R2        2.67933  -0.01026   0.00000  -0.02437  -0.02431   2.65502
    R3        2.69708  -0.00644   0.00000  -0.01543  -0.01551   2.68157
    R4        2.68885   0.00150   0.00000   0.00365   0.00354   2.69239
    R5        2.68433  -0.00403   0.00000  -0.00952  -0.00945   2.67487
    R6        2.59837   0.02010   0.00000   0.04017   0.04012   2.63849
    R7        2.06581  -0.00107   0.00000  -0.00302  -0.00302   2.06279
    R8        2.71874  -0.01539   0.00000  -0.03674  -0.03667   2.68207
    R9        2.05760  -0.00116   0.00000  -0.00323  -0.00323   2.05438
   R10        2.64937   0.02226   0.00000   0.04783   0.04795   2.69732
   R11        2.60940  -0.02022   0.00000  -0.04039  -0.04039   2.56901
   R12        2.05845  -0.00040   0.00000  -0.00112  -0.00112   2.05734
   R13        2.60590   0.01998   0.00000   0.03989   0.03982   2.64572
   R14        2.06578  -0.00065   0.00000  -0.00184  -0.00184   2.06394
   R15        2.69100  -0.01752   0.00000  -0.04023  -0.04022   2.65078
   R16        2.06506  -0.00099   0.00000  -0.00278  -0.00278   2.06228
   R17        2.61472   0.01967   0.00000   0.03994   0.04002   2.65473
   R18        2.85828  -0.00634   0.00000  -0.01970  -0.01970   2.83858
   R19        2.06698  -0.00117   0.00000  -0.00329  -0.00329   2.06369
   R20        2.75081  -0.00600   0.00000  -0.01555  -0.01555   2.73526
   R21        2.74603   0.00057   0.00000   0.00147   0.00147   2.74751
   R22        2.07247  -0.00137   0.00000  -0.00390  -0.00390   2.06857
   R23        2.09152  -0.00304   0.00000  -0.00892  -0.00892   2.08259
   R24        2.08358  -0.00216   0.00000  -0.00625  -0.00625   2.07733
   R25        2.86252  -0.00492   0.00000  -0.01539  -0.01539   2.84713
   R26        2.30650  -0.00924   0.00000  -0.00960  -0.00960   2.29690
   R27        2.88609  -0.00420   0.00000  -0.01365  -0.01365   2.87244
   R28        2.09222  -0.00142   0.00000  -0.00417  -0.00417   2.08805
   R29        2.09170  -0.00115   0.00000  -0.00339  -0.00339   2.08831
   R30        2.89467  -0.00422   0.00000  -0.01391  -0.01391   2.88075
   R31        2.08612  -0.00102   0.00000  -0.00297  -0.00297   2.08315
   R32        2.08637  -0.00099   0.00000  -0.00289  -0.00289   2.08347
   R33        2.89576  -0.00428   0.00000  -0.01411  -0.01411   2.88165
   R34        2.09061  -0.00106   0.00000  -0.00312  -0.00312   2.08749
   R35        2.09063  -0.00107   0.00000  -0.00313  -0.00313   2.08751
   R36        2.89538  -0.00421   0.00000  -0.01387  -0.01387   2.88151
   R37        2.09079  -0.00107   0.00000  -0.00314  -0.00314   2.08766
   R38        2.09077  -0.00107   0.00000  -0.00313  -0.00313   2.08764
   R39        2.89597  -0.00426   0.00000  -0.01407  -0.01407   2.88190
   R40        2.09093  -0.00107   0.00000  -0.00313  -0.00313   2.08781
   R41        2.09102  -0.00107   0.00000  -0.00314  -0.00314   2.08788
   R42        2.89555  -0.00421   0.00000  -0.01388  -0.01388   2.88167
   R43        2.09104  -0.00107   0.00000  -0.00315  -0.00315   2.08790
   R44        2.09100  -0.00107   0.00000  -0.00313  -0.00313   2.08787
   R45        2.89595  -0.00425   0.00000  -0.01403  -0.01403   2.88192
   R46        2.09104  -0.00107   0.00000  -0.00313  -0.00313   2.08790
   R47        2.09111  -0.00107   0.00000  -0.00315  -0.00315   2.08797
   R48        2.89514  -0.00419   0.00000  -0.01380  -0.01380   2.88134
   R49        2.09116  -0.00107   0.00000  -0.00315  -0.00315   2.08802
   R50        2.09111  -0.00107   0.00000  -0.00313  -0.00313   2.08798
   R51        2.89614  -0.00419   0.00000  -0.01385  -0.01385   2.88229
   R52        2.09150  -0.00108   0.00000  -0.00316  -0.00316   2.08834
   R53        2.09155  -0.00108   0.00000  -0.00317  -0.00317   2.08838
   R54        2.89231  -0.00371   0.00000  -0.01216  -0.01216   2.88015
   R55        2.08981  -0.00114   0.00000  -0.00334  -0.00334   2.08647
   R56        2.08967  -0.00112   0.00000  -0.00329  -0.00329   2.08638
   R57        2.08567  -0.00104   0.00000  -0.00303  -0.00303   2.08264
   R58        2.08562  -0.00103   0.00000  -0.00301  -0.00301   2.08261
   R59        2.08283  -0.00108   0.00000  -0.00314  -0.00314   2.07969
   R60        2.07231  -0.00151   0.00000  -0.00430  -0.00430   2.06801
   R61        2.08459  -0.00321   0.00000  -0.00932  -0.00932   2.07527
   R62        2.09295  -0.00394   0.00000  -0.01161  -0.01161   2.08134
    A1        2.09437  -0.00563   0.00000  -0.02373  -0.02371   2.07066
[...]
 HarFok:  IExCor=  205 AccDes= 0.00D+00 IRadAn=         5 IDoV=-2 UseB2=F ITyADJ=14
 ICtDFT= 12500011 ScaDFX=  1.000000  1.000000  1.000000  1.000000
 Range of M.O.s used for correlation:    27   539
 NBasis=   539 NAE=    97 NBE=    97 NFC=    26 NFV=     0
 NROrb=    513 NOA=    71 NOB=    71 NVA=   442 NVB=   442

 **** Warning!!: The largest alpha MO coefficient is  0.13115627D+02

 Would need an additional         57065200000 words for in-memory AO integral storage.
     8 initial guesses have been made.
 Convergence on wavefunction:    0.001000000000000
 Iteration     1 Dimension     8 NMult     0 NNew      8
 CISAX will form     8 AO SS matrices at one time.
 Iteration     2 Dimension    12 NMult     8 NNew      4
 Iteration     3 Dimension    16 NMult    12 NNew      4
 Iteration     4 Dimension    20 NMult    16 NNew      4
 Iteration     5 Dimension    24 NMult    20 NNew      4
 Iteration     6 Dimension    26 NMult    24 NNew      2
 Iteration     7 Dimension    28 NMult    26 NNew      2
 Iteration     8 Dimension    30 NMult    28 NNew      2
 ***********************************************************************
 Excited states from <AA,BB:AA,BB> singles matrix:
 ***********************************************************************
 
 Ground to excited state transition densities written to RWF  633
 Ground to excited state transition electric dipole moments (Au):
       state          X           Y           Z        Dip. S.      Osc.
         1         0.0000      0.0000      0.0000      0.0000      0.0000
         2         0.0000      0.0000      0.0000      0.0000      0.0000
 Ground to excited state transition velocity dipole moments (Au):
       state          X           Y           Z        Dip. S.      Osc.
         1         0.0000      0.0000      0.0000      0.0000      0.0000
         2         0.0000      0.0000      0.0000      0.0000      0.0000
 Ground to excited state transition magnetic dipole moments (Au):
       state          X           Y           Z
         1         0.0000      0.0000      0.0000
         2         0.0000      0.0000      0.0000
 Ground to excited state transition velocity quadrupole moments (Au):
       state          XX          YY          ZZ          XY          XZ          YZ
         1         0.0000      0.0000      0.0000      0.0000      0.0000      0.0000
         2         0.0000      0.0000      0.0000      0.0000      0.0000      0.0000
 <0|del|b> * <b|rxdel|0> + <0|del|b> * <b|delr+rdel|0>
 Rotatory Strengths (R) in cgs (10**-40 erg-esu-cm/Gauss)
       state          XX          YY          ZZ    R(velocity)    E-M Angle
         1         0.0000      0.0000      0.0000      0.0000       90.00
         2         0.0000      0.0000      0.0000      0.0000       90.00
 1/2[<0|r|b>*<b|rxdel|0> + (<0|rxdel|b>*<b|r|0>)*]
 Rotatory Strengths (R) in cgs (10**-40 erg-esu-cm/Gauss)
       state          XX          YY          ZZ     R(length)
         1         0.0000      0.0000      0.0000      0.0000
         2         0.0000      0.0000      0.0000      0.0000
  1/2[<0|del|b>*<b|r|0> + (<0|r|b>*<b|del|0>)*] (Au)
       state          X           Y           Z        Dip. S.   Osc.(frdel)
         1         0.0000      0.0000      0.0000      0.0000      0.0000
         2         0.0000      0.0000      0.0000      0.0000      0.0000

 Excitation energies and oscillator strengths:
 
 Excited state symmetry could not be determined.
 Excited State   1:      Triplet-?Sym    1.9838 eV  624.98 nm  f=0.0000  <S**2>=2.000
      93 ->101         0.12322
      96 -> 98         0.29016
      97 -> 98         0.61957
      97 -> 99         0.13382
      97 <- 98         0.13952
 This state for optimization and/or second-order correction.
 Total Energy, E(TD-HF/TD-KS) =  -1064.97118704    
 Copying the excited state density for this state as the 1-particle RhoCI density.
 
 Excited state symmetry could not be determined.
 Excited State   2:      Triplet-?Sym    3.2478 eV  381.75 nm  f=0.0000  <S**2>=2.000
      96 -> 98         0.55575
      97 -> 98        -0.31725
      97 -> 99         0.19307
      97 ->101        -0.13519
 SavETr:  write IOETrn=   770 NScale= 10 NData=  16 NLR=1 NState=    2 LETran=      46.

 **********************************************************************

            Population analysis using the SCF density.

 **********************************************************************

 Alpha  occ. eigenvalues --  -19.19744 -14.42445 -10.34085 -10.30630 -10.29925
 Alpha  occ. eigenvalues --  -10.29891 -10.26925 -10.26723 -10.26678 -10.26624
 Alpha  occ. eigenvalues --  -10.26465 -10.26372 -10.26223 -10.26087 -10.26018
 Alpha  occ. eigenvalues --  -10.24965 -10.24942 -10.24916 -10.24883 -10.24739
 Alpha  occ. eigenvalues --  -10.24724 -10.24720 -10.24714 -10.24698 -10.24691
 Alpha  occ. eigenvalues --  -10.24570  -1.11488  -1.04278  -0.94979  -0.90047
 Alpha  occ. eigenvalues --   -0.89638  -0.88490  -0.86503  -0.85222  -0.83921
 Alpha  occ. eigenvalues --   -0.82996  -0.81686  -0.79890  -0.79180  -0.76315
 Alpha  occ. eigenvalues --   -0.74504  -0.71220  -0.70095  -0.67885  -0.66651
 Alpha  occ. eigenvalues --   -0.65955  -0.64963  -0.64283  -0.64148  -0.60983
 Alpha  occ. eigenvalues --   -0.59646  -0.58071  -0.56079  -0.55548  -0.54526
 Alpha  occ. eigenvalues --   -0.54353  -0.53842  -0.53145  -0.52220  -0.51374
 Alpha  occ. eigenvalues --   -0.50682  -0.50090  -0.49697  -0.49490  -0.48806
 Alpha  occ. eigenvalues --   -0.48146  -0.48005  -0.47770  -0.47288  -0.46573
 Alpha  occ. eigenvalues --   -0.46500  -0.45682  -0.45372  -0.44924  -0.44231
 Alpha  occ. eigenvalues --   -0.43749  -0.43346  -0.41688  -0.41458  -0.41253
 Alpha  occ. eigenvalues --   -0.40372  -0.40154  -0.39524  -0.39258  -0.38815
 Alpha  occ. eigenvalues --   -0.38703  -0.38481  -0.38016  -0.37877  -0.37568
 Alpha  occ. eigenvalues --   -0.37527  -0.35570  -0.34795  -0.32426  -0.30051
 Alpha  occ. eigenvalues --   -0.27561  -0.22870
 Alpha virt. eigenvalues --   -0.00401   0.04328   0.04779   0.08020   0.09301
 Alpha virt. eigenvalues --    0.10136   0.10595   0.11253   0.11941   0.12037
 Alpha virt. eigenvalues --    0.12168   0.12548   0.12586   0.13373   0.13582
 Alpha virt. eigenvalues --    0.14138   0.14346   0.14997   0.15351   0.15788
 Alpha virt. eigenvalues --    0.16470   0.17373   0.17733   0.17905   0.18343
 Alpha virt. eigenvalues --    0.18774   0.19198   0.19539   0.19798   0.20161
 Alpha virt. eigenvalues --    0.20539   0.20648   0.20957   0.21349   0.22155
 Alpha virt. eigenvalues --    0.22230   0.22937   0.23044   0.23230   0.25020
 Alpha virt. eigenvalues --    0.25059   0.25329   0.25911   0.26281   0.26838
 Alpha virt. eigenvalues --    0.27943   0.28258   0.28632   0.29034   0.29760
 Alpha virt. eigenvalues --    0.30673   0.31059   0.32112   0.33600   0.33774
 Alpha virt. eigenvalues --    0.34528   0.36114   0.37318   0.37500   0.38589
 Alpha virt. eigenvalues --    0.40126   0.40629   0.42408   0.42795   0.43130
 Alpha virt. eigenvalues --    0.43606   0.45897   0.46914   0.46945   0.47379
 Alpha virt. eigenvalues --    0.47651   0.48463   0.49042   0.49608   0.49753
 Alpha virt. eigenvalues --    0.49853   0.50430   0.51097   0.51956   0.52115
 Alpha virt. eigenvalues --    0.52971   0.53590   0.54028   0.54583   0.54810
 Alpha virt. eigenvalues --    0.54873   0.55891   0.56272   0.56516   0.56903
 Alpha virt. eigenvalues --    0.57878   0.58241   0.58314   0.59333   0.59734
 Alpha virt. eigenvalues --    0.59976   0.60605   0.61761   0.62701   0.62979
 Alpha virt. eigenvalues --    0.63399   0.63523   0.64274   0.65651   0.66886
 Alpha virt. eigenvalues --    0.67272   0.67823   0.68305   0.68646   0.69053
 Alpha virt. eigenvalues --    0.69354   0.69473   0.69742   0.69773   0.70456
 Alpha virt. eigenvalues --    0.70625   0.70823   0.70919   0.71267   0.71287
 Alpha virt. eigenvalues --    0.71606   0.71672   0.71876   0.72243   0.72304
 Alpha virt. eigenvalues --    0.72635   0.72933   0.73063   0.73248   0.73302
 Alpha virt. eigenvalues --    0.73731   0.74048   0.74115   0.74608   0.74736
 Alpha virt. eigenvalues --    0.74909   0.75022   0.75353   0.75792   0.76142
 Alpha virt. eigenvalues --    0.76707   0.76862   0.77206   0.77508   0.77844
 Alpha virt. eigenvalues --    0.78168   0.78256   0.78439   0.78926   0.78978
 Alpha virt. eigenvalues --    0.79344   0.80319   0.80674   0.80932   0.81331
 Alpha virt. eigenvalues --    0.81589   0.83101   0.84666   0.84986   0.85312
 Alpha virt. eigenvalues --    0.86810   0.87456   0.88992   0.90333   0.90999
 Alpha virt. eigenvalues --    0.91376   0.92370   0.93546   0.94456   0.95268
 Alpha virt. eigenvalues --    0.95812   0.96911   0.97581   0.97859   0.97949
 Alpha virt. eigenvalues --    0.99365   1.00202   1.00881   1.02311   1.03052
 Alpha virt. eigenvalues --    1.04223   1.05106   1.05557   1.07475   1.08410
 Alpha virt. eigenvalues --    1.08880   1.09369   1.10854   1.12449   1.13947
 Alpha virt. eigenvalues --    1.14692   1.14993   1.16103   1.16300   1.16586
 Alpha virt. eigenvalues --    1.19116   1.20609   1.21395   1.21814   1.23288
 Alpha virt. eigenvalues --    1.24766   1.25851   1.27629   1.27824   1.28112
 Alpha virt. eigenvalues --    1.28274   1.28921   1.29013   1.29440   1.29772
 Alpha virt. eigenvalues --    1.29938   1.30035   1.31012   1.31040   1.31541
 Alpha virt. eigenvalues --    1.31779   1.32563   1.34423   1.35314   1.36256
 Alpha virt. eigenvalues --    1.38532   1.39373   1.39884   1.40711   1.42914
 Alpha virt. eigenvalues --    1.44374   1.44994   1.46309   1.46470   1.46948
 Alpha virt. eigenvalues --    1.47200   1.48121   1.48503   1.49351   1.50113
 Alpha virt. eigenvalues --    1.51188   1.51414   1.52194   1.52760   1.53245
 Alpha virt. eigenvalues --    1.53759   1.55056   1.55449   1.56394   1.56636
 Alpha virt. eigenvalues --    1.57611   1.57843   1.59851   1.60161   1.61739
 Alpha virt. eigenvalues --    1.63311   1.63779   1.64443   1.65624   1.66006
 Alpha virt. eigenvalues --    1.67364   1.67718   1.68230   1.68887   1.69297
 Alpha virt. eigenvalues --    1.69660   1.69802   1.70159   1.70601   1.70627
 Alpha virt. eigenvalues --    1.71257   1.71457   1.71774   1.71929   1.72143
 Alpha virt. eigenvalues --    1.72330   1.72665   1.72994   1.73327   1.73500
 Alpha virt. eigenvalues --    1.74030   1.74642   1.74747   1.75233   1.75546
 Alpha virt. eigenvalues --    1.75814   1.76319   1.76609   1.77246   1.77390
 Alpha virt. eigenvalues --    1.77938   1.78143   1.78377   1.78439   1.78937
 Alpha virt. eigenvalues --    1.79197   1.79372   1.79555   1.79927   1.80486
 Alpha virt. eigenvalues --    1.80615   1.80671   1.81038   1.81542   1.82034
 Alpha virt. eigenvalues --    1.82525   1.82812   1.82855   1.83368   1.84114
 Alpha virt. eigenvalues --    1.84609   1.84922   1.85615   1.85978   1.86765
 Alpha virt. eigenvalues --    1.87004   1.87515   1.87641   1.87874   1.88620
 Alpha virt. eigenvalues --    1.89185   1.89406   1.90044   1.90305   1.91405
 Alpha virt. eigenvalues --    1.91614   1.92374   1.92767   1.93253   1.95474
 Alpha virt. eigenvalues --    1.95976   1.97585   1.98688   1.99264   2.00030
 Alpha virt. eigenvalues --    2.00755   2.01889   2.02308   2.03585   2.04283
 Alpha virt. eigenvalues --    2.04500   2.04792   2.05423   2.05850   2.07041
 Alpha virt. eigenvalues --    2.07516   2.08398   2.09046   2.09548   2.10731
 Alpha virt. eigenvalues --    2.11549   2.12561   2.13710   2.13742   2.14709
 Alpha virt. eigenvalues --    2.15160   2.15968   2.16685   2.17125   2.18361
 Alpha virt. eigenvalues --    2.20007   2.20659   2.21957   2.22776   2.23874
 Alpha virt. eigenvalues --    2.26148   2.26998   2.27385   2.27784   2.28552
 Alpha virt. eigenvalues --    2.28747   2.30348   2.30978   2.32070   2.32344
 Alpha virt. eigenvalues --    2.33844   2.34316   2.34756   2.35296   2.35726
 Alpha virt. eigenvalues --    2.36241   2.36430   2.37179   2.37839   2.39381
 Alpha virt. eigenvalues --    2.40074   2.40425   2.40726   2.41441   2.41737
 Alpha virt. eigenvalues --    2.42189   2.42722   2.43780   2.44716   2.45183
 Alpha virt. eigenvalues --    2.45711   2.45779   2.47768   2.48739   2.49327
 Alpha virt. eigenvalues --    2.49786   2.50505   2.50602   2.52242   2.52745
 Alpha virt. eigenvalues --    2.53311   2.53823   2.55245   2.55536   2.56501
 Alpha virt. eigenvalues --    2.57016   2.58665   2.60865   2.61545   2.61921
 Alpha virt. eigenvalues --    2.62725   2.64588   2.65309   2.65719   2.66655
 Alpha virt. eigenvalues --    2.67324   2.68400   2.69465   2.72122   2.72504
 Alpha virt. eigenvalues --    2.72767   2.74735   2.76119   2.76825   2.78070
 Alpha virt. eigenvalues --    2.79718   2.81220   2.81403   2.83540   2.86866
 Alpha virt. eigenvalues --    2.87164   2.88529   2.89793   2.92712   2.96102
 Alpha virt. eigenvalues --    2.99292   3.15129   3.20608   3.39287   3.45934
 Alpha virt. eigenvalues --    3.53824   3.59436
          Condensed to atoms (all electrons):
 Mulliken charges:
               1
     1  C    0.056323
     2  C    0.030183
     3  C    0.018127
     4  C   -0.019527
     5  C    0.193345
     6  C   -0.077828
     7  C   -0.000692
     8  C    0.043033
     9  C    0.005047
    10  C    0.018666
    11  N   -0.316157
    12  C    0.072142
    13  C    0.035579
    14  C   -0.013729
    15  C    0.000331
    16  C   -0.012016
    17  C   -0.008912
    18  C   -0.009015
    19  C   -0.009251
    20  C   -0.010558
    21  C   -0.010938
    22  C   -0.017649
    23  C   -0.043337
    24  C   -0.011642
    25  C    0.081939
    26  O   -0.185820
    27  H   -0.038719
    28  H   -0.027896
    29  H   -0.053498
    30  H   -0.048218
    31  H   -0.035878
    32  H   -0.041023
    33  H    0.034039
    34  H    0.033215
    35  H    0.027958
    36  H    0.039417
    37  H    0.033518
    38  H    0.029428
    39  H    0.035983
    40  H    0.034784
    41  H    0.018410
    42  H    0.017881
    43  H    0.003426
    44  H    0.003346
    45  H    0.006694
    46  H    0.006518
    47  H    0.003993
    48  H    0.003851
    49  H    0.005031
    50  H    0.004923
    51  H    0.004148
    52  H    0.004051
    53  H    0.004440
    54  H    0.004381
    55  H    0.003929
    56  H    0.003866
    57  H    0.007905
    58  H    0.007865
    59  H    0.019292
    60  H    0.019277
    61  H    0.016018
 Sum of Mulliken charges =   0.00000
 Mulliken charges with hydrogens summed into heavy atoms:
               1
     1  C    0.056323
     2  C    0.030183
     3  C   -0.020592
     4  C   -0.047423
     5  C    0.193345
     6  C   -0.131327
     7  C   -0.041715
     8  C    0.007155
     9  C    0.005047
    10  C   -0.029552
    11  N   -0.316157
    12  C    0.172337
    13  C    0.035579
    14  C    0.053526
    15  C    0.036623
    16  C   -0.005245
    17  C    0.004300
    18  C   -0.001171
    19  C    0.000703
    20  C   -0.002358
    21  C   -0.002117
    22  C   -0.009853
    23  C   -0.027567
    24  C    0.042945
    25  C    0.182833
    26  O   -0.185820
 Electronic spatial extent (au):  <R**2>=          53091.8450
 Charge=              0.0000 electrons
 Dipole moment (field-independent basis, Debye):
    X=              3.9943    Y=              2.3847    Z=             -1.9931  Tot=              5.0610
 Quadrupole moment (field-independent basis, Debye-Ang):
   XX=           -149.0219   YY=           -170.1061   ZZ=           -156.1175
   XY=             -6.1942   XZ=              3.4971   YZ=              7.3043
 Traceless Quadrupole moment (field-independent basis, Debye-Ang):
   XX=              9.3933   YY=            -11.6910   ZZ=              2.2977
   XY=             -6.1942   XZ=              3.4971   YZ=              7.3043
 Octapole moment (field-independent basis, Debye-Ang**2):
  XXX=           2166.9089  YYY=           -936.8115  ZZZ=          -1267.2991  XYY=            723.7677
  XXY=           -275.3764  XXZ=           -481.8436  XZZ=            718.3671  YZZ=           -284.2717
  YYZ=           -443.0255  XYZ=            -17.7111
 Hexadecapole moment (field-independent basis, Debye-Ang**3):
 XXXX=         -50492.4847 YYYY=          -9565.9725 ZZZZ=         -14344.0481 XXXY=           9977.3836
 XXXZ=          13160.0061 YYYX=          10041.0429 YYYZ=          -5393.2794 ZZZX=          12788.5905
 ZZZY=          -5182.0059 XXYY=         -10399.7371 XXZZ=         -10996.5610 YYZZ=          -4039.0453
 XXYZ=          -1831.7590 YYXZ=           4458.0469 ZZXY=           3232.1480
 N-N= 1.996242398342D+03 E-N=-6.462181622772D+03  KE= 1.057230543308D+03
 1\1\GINC-BOOTES\SP\RCAM-B3LYP TD-FC\CC-pVDZ\C24H35N1O1\TBERGS\06-May-2
 017\0\\#CAM-B3LYP/cc-pVDZ nosymm TD(NStates=2, triplets) guess=read ge
 om=(allcheck,modredundant)\\L90tail deg\\0,1\C,0,-0.1106151472,0.03761
 4583,-0.0290392227\C,0,-0.0955997739,0.2134249814,1.4110987729\C,0,1.1
 488221962,0.438233292,2.055036114\C,0,2.3650979555,0.4974158535,1.3656
 022236\C,0,2.3583404998,0.3248734299,-0.0382168776\C,0,1.1116394064,0.
 0967546308,-0.7159428321\C,0,-1.3373974204,-0.1853601798,-0.6923410511
 \C,0,-2.5533030846,-0.240263966,0.0193685573\C,0,-2.53675279,-0.069416
 675,1.4004256352\C,0,-1.3258035699,0.1500986906,2.0967780206\N,0,3.503
 1189006,0.3742230517,-0.7627520483\C,0,4.7666859827,0.6468460388,-0.10
 02031405\C,0,-3.8201793572,-0.1357667614,2.1810736305\C,0,-4.554316109
 9,1.1656727203,2.3860415493\C,0,-5.8252202188,1.0527825092,3.213533414
 5\C,0,-6.5285253767,2.3928349212,3.401272404\C,0,-7.8015619655,2.29621
 0763,4.2360369594\C,0,-8.5047479776,3.6357746926,4.4302491231\C,0,-9.7
 749958274,3.5436713335,5.2699913714\C,0,-10.4745974826,4.884797319,5.4
 669689385\C,0,-11.7430483262,4.7952054188,6.3097017887\C,0,-12.4405227
 135,6.136903675,6.508832187\C,0,-13.7086403517,6.0480120309,7.35256213
 29\C,0,-14.3964034645,7.3946655994,7.5458638466\C,0,3.5130435479,0.169
 4644298,-2.2061006745\O,0,-4.2310665878,-1.1928308532,2.6194714541\H,0
 ,1.1478694395,0.5680269837,3.1396661932\H,0,3.2894344484,0.6640467221,
 1.9101523333\H,0,1.0999938065,-0.0283552002,-1.7967554592\H,0,-1.33916
 46914,0.2742008512,3.1815224685\H,0,-3.493723487,-0.4120336273,-0.5056
 541416\H,0,-1.3316405216,-0.3142543074,-1.7768762276\H,0,-4.760214444,
 1.580903019,1.3830038245\H,0,-3.8387787922,1.8756963565,2.8384118365\H
 ,0,4.5498963324,0.1706098678,-2.5535072546\H,0,3.0594683883,-0.7950476
 737,-2.4713982018\H,0,2.9692471337,0.9716810952,-2.726446656\H,0,5.564
 790284,0.6931003845,-0.8459056712\H,0,4.722745082,1.6061741967,0.43732
 15919\H,0,5.0031929935,-0.1439585745,0.6287783055\H,0,-6.5093474232,0.
 3354431296,2.7311311874\H,0,-5.5790653188,0.6190067303,4.1968698331\H,
 0,-6.7717470547,2.8206278355,2.4121368834\H,0,-5.833439739,3.107110770
 8,3.8780170073\H,0,-8.4977154631,1.5836405372,3.7581828886\H,0,-7.5571
 384155,1.8658155244,5.2238295742\H,0,-8.7509406213,4.0647480514,3.4421
 831238\H,0,-7.8057500858,4.3482516669,4.9043394621\H,0,-10.4754569657,
 2.8329806858,4.7953690085\H,0,-9.5286389402,3.1128506439,6.2572455598\
 H,0,-10.722281401,5.3149408512,4.4797310187\H,0,-9.7726923818,5.595451
 8174,5.9395943873\H,0,-12.4457827018,4.0857177874,5.8365046644\H,0,-11
 .4952001305,4.3636144245,7.2963081896\H,0,-12.6894542638,6.5690277797,
 5.5225110214\H,0,-11.7379428336,6.8468760915,6.9819993526\H,0,-14.4099
 357339,5.3388551168,6.8786413053\H,0,-13.4588891584,5.6155096848,8.337
 3447701\H,0,-14.6858521114,7.8355127897,6.5780812769\H,0,-13.728789237
 5,8.1130786979,8.0487281627\H,0,-15.3073369346,7.301221761,8.156381104
 6\\Version=ES64L-G09RevD.01\HF=-1065.0440911\RMSD=6.743e-09\PG=C01 [X(
 C24H35N1O1)]\\@


 Money is a good servant but a bad master.
                        -- French Proverb
 Job cpu time:       0 days  1 hours  3 minutes 27.1 seconds.
 File lengths (MBytes):  RWF=    350 Int=      0 D2E=      0 Chk=     75 Scr=      1
 Normal termination of Gaussian 09 at Sat May  6 23:01:42 2017.
